LAMMPS (29 Sep 2021)
clear

atom_style atomic
units metal
boundary p p p
atom_modify sort 0 0.0

read_data conf.lmp
Reading data file ...
  orthogonal box = (0.0000000 0.0000000 0.0000000) to (46.307886 46.307886 46.770965)
  1 by 2 by 2 MPI processor grid
  reading atoms ...
  16800 atoms
  read_data CPU = 0.077 seconds

### interactions
pair_style  deepmd  /m100_work/ICT22_CMSP_0/zli/ice/disp/direct_interface_lammps/convert_out.pb
pair_coeff * *
mass 1 15.999000
mass 2 1.008000

### run

#fix 1 all box/relax aniso 17500.0 couple xy
dump dump_all all custom 1 lammps.trj id type x y z fx fy fz

thermo_style custom step temp press cpu pxx pyy pzz pxy pxz pyz ke pe etotal vol lx ly lz atoms

thermo 1

minimize 1.0e-20 1.0e-6 2000 4000

CITE-CITE-CITE-CITE-CITE-CITE-CITE-CITE-CITE-CITE-CITE-CITE-CITE

Your simulation uses code contributions which should be cited:

- USER-DEEPMD package:

@article{Wang_ComputPhysCommun_2018_v228_p178,
  author = {Wang, Han and Zhang, Linfeng and Han, Jiequn and E, Weinan},
  doi = {10.1016/j.cpc.2018.03.016},
  url = {https://doi.org/10.1016/j.cpc.2018.03.016},
  year = 2018,
  month = {jul},
  publisher = {Elsevier {BV}},
  volume = 228,
  journal = {Comput. Phys. Commun.},
  title = {{DeePMD-kit: A deep learning package for many-body potential energy representation and molecular dynamics}},
  pages = {178--184}
}

CITE-CITE-CITE-CITE-CITE-CITE-CITE-CITE-CITE-CITE-CITE-CITE-CITE

WARNING: Using 'neigh_modify every 1 delay 0 check yes' setting during minimization (../min.cpp:188)
Neighbor list info ...
  update every 1 steps, delay 0 steps, check yes
  max neighbors/atom: 2000, page size: 100000
  master list distance cutoff = 8
  ghost atom cutoff = 8
  binsize = 4, bins = 12 12 12
  1 neighbor lists, perpetual/occasional/extra = 1 0 0
  (1) pair deepmd, perpetual
      attributes: full, newton on
      pair build: full/bin/atomonly
      stencil: full/bin/3d
      bin: standard
Per MPI rank memory allocation (min/avg/max) = 11.85 | 11.85 | 11.85 Mbytes
Step Temp Press CPU Pxx Pyy Pzz Pxy Pxz Pyz KinEng PotEng TotEng Volume Lx Ly Lz Atoms 
       0            0    15176.012            0    18084.661    16910.862    10532.512   -1.1337886   -23.904008   -18.344228            0    -91387.69    -91387.69    100296.61    46.307886    46.307886    46.770965    16800 
       1            0    12387.714   0.26636104     13636.47    13686.133    9840.5386    1.7556068    -113.2434   -38.081001            0    -91391.37    -91391.37    100296.61    46.307886    46.307886    46.770965    16800 
       2            0    10493.878   0.40605941    10771.589    10722.215    9987.8288   -4.6455622   -15.388884   -3.9025416            0   -91394.021   -91394.021    100296.61    46.307886    46.307886    46.770965    16800 
       3            0    10986.622   0.67060609     11600.43    10443.921    10915.515   -6.8465388   -51.039744   -18.962027            0   -91394.772   -91394.772    100296.61    46.307886    46.307886    46.770965    16800 
       4            0    11812.287   0.93487019    12459.406    10634.394    12343.062  -0.49169845   -24.126397   -25.820961            0   -91396.255   -91396.255    100296.61    46.307886    46.307886    46.770965    16800 
       5            0    10942.839    1.0717486    11008.905    10276.409    11543.202 -0.067470895   -18.783878   -16.822116            0   -91398.649   -91398.649    100296.61    46.307886    46.307886    46.770965    16800 
       6            0    10389.588    1.3364767    10422.357     10077.59    10668.816   -4.9807628   -44.849745    -16.10673            0   -91398.994   -91398.994    100296.61    46.307886    46.307886    46.770965    16800 
       7            0      10280.3    1.6011067    10474.703    10543.763    9822.4323   -2.0275991   -16.459361   -15.503305            0   -91399.248   -91399.248    100296.61    46.307886    46.307886    46.770965    16800 
       8            0     11341.82    1.8656527    12003.276     12082.93    9939.2533   -7.6237139    -37.45063   -14.065012            0   -91399.637   -91399.637    100296.61    46.307886    46.307886    46.770965    16800 
       9            0    11886.216    2.1300366    12369.423     12230.61    11058.614   -5.1635483   -22.419957   -7.6010333            0   -91399.935   -91399.935    100296.61    46.307886    46.307886    46.770965    16800 
      10            0    10711.531    2.3943667    10628.558    10491.355    11014.679   -4.3161492   -32.562662   -21.646462            0   -91400.526   -91400.526    100296.61    46.307886    46.307886    46.770965    16800 
      11            0     9917.222    2.6612815    9785.1279     9737.677    10228.861   -4.3537525   -22.468899   -15.866586            0   -91400.681   -91400.681    100296.61    46.307886    46.307886    46.770965    16800 
      12            0    10628.379    2.9257729    11119.266     11018.44    9747.4303   -1.9437171   -31.192935   -17.155391            0   -91401.242   -91401.242    100296.61    46.307886    46.307886    46.770965    16800 
      13            0    11199.445    3.1901673    11646.033    11735.724    10216.578   -8.5486785   -11.375875   -15.781817            0   -91401.373   -91401.373    100296.61    46.307886    46.307886    46.770965    16800 
      14            0    11504.919    3.4544065    11727.848    12041.356    10745.553   -7.8030691   -21.724059   -14.821606            0   -91401.461   -91401.461    100296.61    46.307886    46.307886    46.770965    16800 
      15            0    10666.286    3.7225243    10864.889    10951.303    10182.665    0.6821546   -20.569878   -17.865276            0   -91401.641   -91401.641    100296.61    46.307886    46.307886    46.770965    16800 
      16            0    10343.465    3.9869936    10488.207    10505.446    10036.743   -7.4440025   -7.4620647   -18.527821            0    -91401.71    -91401.71    100296.61    46.307886    46.307886    46.770965    16800 
      17            0    10583.585    4.2522561    10498.284    10669.508    10582.962   -6.7231005   -14.758162    -17.34263            0   -91401.807   -91401.807    100296.61    46.307886    46.307886    46.770965    16800 
      18            0    10613.439    4.5168967    10537.909    10659.356    10643.053    4.9864185   -19.058842   -15.843569            0   -91401.915   -91401.915    100296.61    46.307886    46.307886    46.770965    16800 
      19            0    10339.657    4.7236271    10537.892    10405.705    10075.373    1.7311568   -4.6846104   -16.631433            0    -91402.08    -91402.08    100296.61    46.307886    46.307886    46.770965    16800 
      20            0    10588.948    4.9882953    10839.519    10812.306    10115.019   -5.1678657   -12.202674   -12.421157            0   -91402.202   -91402.202    100296.61    46.307886    46.307886    46.770965    16800 
      21            0    11151.196    5.1253804    11417.828    11587.152    10448.609    2.3691487   -17.437378   -2.1986578            0   -91402.315   -91402.315    100296.61    46.307886    46.307886    46.770965    16800 
      22            0     11089.78    5.3896339    11470.813    11510.577    10287.951    1.1133639   -5.6994025   -6.0370108            0   -91402.402   -91402.402    100296.61    46.307886    46.307886    46.770965    16800 
      23            0    10592.184    5.6541101    11080.747    10882.704    9813.1006   -3.6606307    -0.178802   -11.076519            0   -91402.498   -91402.498    100296.61    46.307886    46.307886    46.770965    16800 
      24            0    10472.069    5.9186682    10809.388    10704.689    9902.1319 -0.036141949   -7.3033674    7.8515409            0   -91402.609   -91402.609    100296.61    46.307886    46.307886    46.770965    16800 
      25            0    10737.691    6.1832604    10901.588     10985.26    10326.226 -0.085914959  -0.92173767    2.8770469            0   -91402.678   -91402.678    100296.61    46.307886    46.307886    46.770965    16800 
      26            0    10773.375    6.4478957    10956.326     10979.23     10384.57     -0.31618   0.16907761   -6.0211231            0   -91402.711   -91402.711    100296.61    46.307886    46.307886    46.770965    16800 
      27            0    10546.274    6.7125251    10880.975    10697.937    10059.911  -0.70208002   -3.1068223    9.4163047            0   -91402.771   -91402.771    100296.61    46.307886    46.307886    46.770965    16800 
      28            0    10482.069    6.9769252    10883.666    10708.039    9854.5028  -0.81033941    3.3273934    7.9272953            0   -91402.853   -91402.853    100296.61    46.307886    46.307886    46.770965    16800 
      29            0    10793.939    7.2440863    11113.181    11063.485    10205.152 0.0082642003    2.4817199  -0.78930413            0    -91402.91    -91402.91    100296.61    46.307886    46.307886    46.770965    16800 
      30            0    10844.545    7.5767468    11158.776    11083.076    10291.782  -0.18192171   0.84591695    5.7396196            0   -91402.939   -91402.939    100296.61    46.307886    46.307886    46.770965    16800 
      31            0    10608.886    7.8415052    10895.427    10845.831    10085.399    0.1710123    4.6620502    1.1446285            0   -91402.983   -91402.983    100296.61    46.307886    46.307886    46.770965    16800 
      32            0    10629.437    8.1060385    10821.249    10910.303    10156.758   0.45319854    1.3595755  -0.83847002            0   -91403.004   -91403.004    100296.61    46.307886    46.307886    46.770965    16800 
      33            0     10823.91    8.3714491    10978.061    11096.128    10397.542   0.34261629    1.8649423    4.6003992            0   -91403.036   -91403.036    100296.61    46.307886    46.307886    46.770965    16800 
      34            0    10664.929    8.6362752    10956.746    10892.086    10145.956  0.050506168    3.5339804   -4.4622313            0    -91403.09    -91403.09    100296.61    46.307886    46.307886    46.770965    16800 
      35            0     10623.97    8.9010275    10933.273    10887.166    10051.472  0.014552538 -0.0045754827   -1.0209303            0   -91403.113   -91403.113    100296.61    46.307886    46.307886    46.770965    16800 
      36            0    10777.564    9.1655762    11033.718    11064.199    10234.773   0.14579617   0.73817291  -0.15981904            0   -91403.123   -91403.123    100296.61    46.307886    46.307886    46.770965    16800 
      37            0    10797.426    9.4331135    11080.224    11039.631    10272.423  -0.28477151   0.51364795   -5.2308604            0   -91403.144   -91403.144    100296.61    46.307886    46.307886    46.770965    16800 
      38            0    10676.136    9.6994313      10962.3    10922.755    10143.353  0.019077787   -1.1945386   0.31980501            0    -91403.17    -91403.17    100296.61    46.307886    46.307886    46.770965    16800 
      39            0    10714.351    9.9639629    10915.684    11038.979    10188.391  0.077697047  -0.44503284  -0.25897502            0   -91403.179   -91403.179    100296.61    46.307886    46.307886    46.770965    16800 
      40            0    10804.046    10.230256    11021.801    11112.993    10277.344   0.13307824   -1.6576883   -1.9092463            0   -91403.198   -91403.198    100296.61    46.307886    46.307886    46.770965    16800 
      41            0    10737.994    10.494706    11037.893    10989.938    10186.151 -0.065182819   -1.1423272   0.60081601            0   -91403.214   -91403.214    100296.61    46.307886    46.307886    46.770965    16800 
      42            0    10584.417    10.759345    10829.554    10921.467     10002.23 -0.089021408    1.8449353   -1.7069724            0   -91403.234   -91403.234    100296.61    46.307886    46.307886    46.770965    16800 
      43            0    10710.923    11.024276    10970.787    10996.002    10165.981 0.0011863524   -1.8627895   0.93958157            0   -91403.253   -91403.253    100296.61    46.307886    46.307886    46.770965    16800 
      44            0    10777.411      11.2893    11071.717    11011.218    10249.299  -0.14031811    1.3988282 -0.098407031            0    -91403.26    -91403.26    100296.61    46.307886    46.307886    46.770965    16800 
      45            0    10607.286    11.553904    10861.859      10924.9    10035.099 -0.0024631246     1.021776   -0.8991815            0   -91403.291   -91403.291    100296.61    46.307886    46.307886    46.770965    16800 
      46            0    10709.015    11.818189    10975.202    10996.431    10155.412 -0.057975044   -1.2329966    2.3181838            0   -91403.308   -91403.308    100296.61    46.307886    46.307886    46.770965    16800 
      47            0    10808.836    12.082469    11103.978    11048.252    10274.279 -0.076947843    2.5341258    -1.354641            0   -91403.319   -91403.319    100296.61    46.307886    46.307886    46.770965    16800 
      48            0    10716.612    12.348887    11007.181    10988.234    10154.421  -0.10797668     0.312281  -0.19336955            0   -91403.342   -91403.342    100296.61    46.307886    46.307886    46.770965    16800 
      49            0    10695.422    12.613247    10981.498    10975.685    10129.083   0.08862433  -0.44342669    2.1827504            0    -91403.35    -91403.35    100296.61    46.307886    46.307886    46.770965    16800 
      50            0    10747.731    12.877628    11042.945    11001.123    10199.126  -0.20847585    1.7949517   -1.6146849            0   -91403.366   -91403.366    100296.61    46.307886    46.307886    46.770965    16800 
      51            0    10741.982     13.14208    11030.478    10998.764    10196.706 0.0052066789   0.76172786   -1.1697312            0   -91403.394   -91403.394    100296.61    46.307886    46.307886    46.770965    16800 
      52            0    10668.033    13.406455    10938.887    10963.616    10101.594   0.13662736  -0.50853409    1.5827463            0   -91403.407   -91403.407    100296.61    46.307886    46.307886    46.770965    16800 
      53            0    10663.055    13.672391    10936.071    10967.511    10085.583 -0.056664197   0.94810958   -1.1374037            0   -91403.424   -91403.424    100296.61    46.307886    46.307886    46.770965    16800 
      54            0    10747.281    13.937419    11035.328    11019.041    10187.476  0.018683963   0.46583289   -1.3822819            0   -91403.431   -91403.431    100296.61    46.307886    46.307886    46.770965    16800 
      55            0    10747.764    14.201795    11027.559    11026.519    10189.214  -0.04428761  -0.49708162   0.49773023            0   -91403.441   -91403.441    100296.61    46.307886    46.307886    46.770965    16800 
      56            0    10689.983    14.466232    10967.033    10982.152    10120.763  0.025987182   0.39224335   -1.0162793            0   -91403.454   -91403.454    100296.61    46.307886    46.307886    46.770965    16800 
      57            0    10749.289    14.732331    11058.207    10995.194    10194.464 0.0030932831  -0.69306932  -0.38910144            0   -91403.461   -91403.461    100296.61    46.307886    46.307886    46.770965    16800 
      58            0    10768.025    14.998655    11051.616    11035.407    10217.054 -0.060400276 -0.081110734   0.57874825            0   -91403.478   -91403.478    100296.61    46.307886    46.307886    46.770965    16800 
      59            0    10706.336    15.263094    10968.105    11011.066    10139.836 -0.067813282  -0.68635797  0.082630657            0   -91403.487   -91403.487    100296.61    46.307886    46.307886    46.770965    16800 
      60            0    10695.962     15.52798    11008.824    10955.646    10123.415   -0.1074287   -1.6231475    1.2623557            0   -91403.496   -91403.496    100296.61    46.307886    46.307886    46.770965    16800 
      61            0    10738.408    15.792494     11037.42    11007.572    10170.231 -0.039471697    0.4396863   0.67733704            0   -91403.511   -91403.511    100296.61    46.307886    46.307886    46.770965    16800 
      62            0    10732.654     16.05712    10996.754    11038.515    10162.692  -0.10416952  -0.62537241   0.61626515            0   -91403.517   -91403.517    100296.61    46.307886    46.307886    46.770965    16800 
      63            0    10675.886    16.323235    10983.534    10945.662    10098.462  -0.13201935  -0.75334168    1.8222339            0   -91403.524   -91403.524    100296.61    46.307886    46.307886    46.770965    16800 
      64            0    10689.636     16.58756    10991.306    10955.644    10121.958 -0.092143666    0.2188854   0.57141947            0   -91403.531   -91403.531    100296.61    46.307886    46.307886    46.770965    16800 
      65            0    10734.309    16.852149    10995.614    11030.866    10176.448 -0.079761623  -0.40197573   0.54875157            0   -91403.534   -91403.534    100296.61    46.307886    46.307886    46.770965    16800 
      66            0    10710.864    17.116844    11006.584    10989.851    10136.157 -0.055487669   0.38927812    1.7886613            0   -91403.541   -91403.541    100296.61    46.307886    46.307886    46.770965    16800 
      67            0    10708.282    17.381268     11007.16    10991.395    10126.292 -0.066319512  0.065978238  0.085414279            0   -91403.546   -91403.546    100296.61    46.307886    46.307886    46.770965    16800 
      68            0    10763.537    17.647388    11007.582    11086.123    10196.907 -0.040755226  -0.36567145 -0.071303879            0   -91403.551   -91403.551    100296.61    46.307886    46.307886    46.770965    16800 
      69            0    10728.991    17.911805     11020.33    11000.487    10166.156  0.057177103    1.2762929   0.89952923            0   -91403.561   -91403.561    100296.61    46.307886    46.307886    46.770965    16800 
      70            0    10700.142    18.178079    11003.194    10963.715    10133.516  0.048689341   0.24991968  -0.74535761            0   -91403.564   -91403.564    100296.61    46.307886    46.307886    46.770965    16800 
      71            0    10719.694    18.442464    10976.343    11028.501    10154.237  0.024049879 -0.00073111939  -0.97444656            0   -91403.568   -91403.568    100296.61    46.307886    46.307886    46.770965    16800 
      72            0     10736.61    18.706868    11019.597    11021.815    10168.418  0.047592499    1.4727648   0.10381432            0   -91403.573   -91403.573    100296.61    46.307886    46.307886    46.770965    16800 
      73            0    10721.708    18.971209    11032.611    10985.871    10146.642  0.054287768   0.57784717   -1.0191715            0   -91403.576   -91403.576    100296.61    46.307886    46.307886    46.770965    16800 
      74            0    10703.626    19.236371    10970.741    11016.324    10123.814  0.041588311   -0.1345389   -1.2583412            0    -91403.58    -91403.58    100296.61    46.307886    46.307886    46.770965    16800 
      75            0    10721.791    19.501977    10992.699    11024.809    10147.866  0.059117144    1.0236832  -0.10346083            0   -91403.584   -91403.584    100296.61    46.307886    46.307886    46.770965    16800 
      76            0     10733.26     19.76665    11041.319    10994.369    10164.092   0.06744349   0.28459831  -0.67451725            0   -91403.587   -91403.587    100296.61    46.307886    46.307886    46.770965    16800 
      77            0    10697.978    20.032789    10972.319    10998.122    10123.493  0.044452782  -0.93659317  -0.77711205            0    -91403.59    -91403.59    100296.61    46.307886    46.307886    46.770965    16800 
      78            0     10695.71    20.297365    10959.157    11005.035    10122.937  0.022762838 -0.0039357159    0.2645647            0   -91403.595   -91403.595    100296.61    46.307886    46.307886    46.770965    16800 
      79            0      10734.2     20.56187    11039.298    10993.996    10169.306 0.00060447487   -0.3517191 -0.0052539154            0   -91403.597   -91403.597    100296.61    46.307886    46.307886    46.770965    16800 
      80            0    10726.182    20.826195    11014.239    11010.194    10154.112 -0.0096380884   -1.4080049  0.045047279            0     -91403.6     -91403.6    100296.61    46.307886    46.307886    46.770965    16800 
      81            0     10702.41    21.090378    10960.891    11029.125    10117.214 -0.013479973  -0.40790518   0.66069449            0   -91403.605   -91403.605    100296.61    46.307886    46.307886    46.770965    16800 
      82            0    10735.751    21.355045     11038.37    11010.553    10158.331 -0.034517975  -0.49896686   0.16934528            0   -91403.607   -91403.607    100296.61    46.307886    46.307886    46.770965    16800 
      83            0    10744.565    21.621388     11043.34    11015.566    10174.789 -0.049383959   -1.0299723   0.54435549            0    -91403.61    -91403.61    100296.61    46.307886    46.307886    46.770965    16800 
      84            0    10708.983     21.88572    10967.258     11020.88    10138.811 -0.075883133  -0.24924077   0.62131186            0   -91403.614   -91403.614    100296.61    46.307886    46.307886    46.770965    16800 
      85            0    10711.803    22.151718    11006.095    10986.647    10142.668 -0.072947888  -0.27601974 -0.092589292            0   -91403.616   -91403.616    100296.61    46.307886    46.307886    46.770965    16800 
      86            0     10733.16      22.4162     11049.66    10984.675    10165.144 -0.047204897  -0.40111181   0.44831025            0   -91403.619   -91403.619    100296.61    46.307886    46.307886    46.770965    16800 
      87            0    10727.437    22.680474    10993.969    11035.827    10152.513  -0.04263519   0.16379106   0.38716621            0   -91403.622   -91403.622    100296.61    46.307886    46.307886    46.770965    16800 
      88            0    10713.716    22.945063    11000.024    11006.096    10135.029 -0.036452889 -0.0070052056  -0.49771901            0   -91403.623   -91403.623    100296.61    46.307886    46.307886    46.770965    16800 
      89            0    10712.947    23.209708    11029.047    10974.216    10135.579 -0.033245951  0.015937955   0.05418743            0   -91403.626   -91403.626    100296.61    46.307886    46.307886    46.770965    16800 
      90            0     10728.05    23.474402    10999.155     11028.51    10156.486 -0.032463699   0.36397929   0.20792392            0   -91403.627   -91403.627    100296.61    46.307886    46.307886    46.770965    16800 
      91            0    10717.624    23.740861    10994.558     11013.63    10144.684 -0.020114885  0.026465715  -0.64330462            0   -91403.628   -91403.628    100296.61    46.307886    46.307886    46.770965    16800 
      92            0    10696.846    24.005381    11016.783    10953.336    10120.417 0.0042892574  0.098334236  -0.21379926            0    -91403.63    -91403.63    100296.61    46.307886    46.307886    46.770965    16800 
      93            0    10722.093    24.271915     11004.97    11010.077    10151.231  0.013281408   0.50296999   0.10046882            0   -91403.632   -91403.632    100296.61    46.307886    46.307886    46.770965    16800 
      94            0    10727.168    24.538649    11003.174    11022.045    10156.285   0.01779322  0.088258702  -0.54787502            0   -91403.632   -91403.632    100296.61    46.307886    46.307886    46.770965    16800 
      95            0    10706.757     24.80317    11020.679    10972.126    10127.465  0.026146778  0.024644932  -0.26328741            0   -91403.634   -91403.634    100296.61    46.307886    46.307886    46.770965    16800 
      96            0    10718.593    25.068124    11010.395    11004.887    10140.496  0.027815571   0.44738564   0.16796916            0   -91403.635   -91403.635    100296.61    46.307886    46.307886    46.770965    16800 
      97            0    10732.381     25.33401    11004.872    11034.253    10158.017  0.031605181 -0.0088983908  -0.29355298            0   -91403.635   -91403.635    100296.61    46.307886    46.307886    46.770965    16800 
      98            0    10717.402    25.598493     11021.13    10987.856     10143.22  0.040090597  -0.26668059 -0.072328993            0   -91403.637   -91403.637    100296.61    46.307886    46.307886    46.770965    16800 
      99            0    10712.716    25.863123    11007.783    10991.388    10138.977  0.038340413   0.15613215   0.27682589            0   -91403.637   -91403.637    100296.61    46.307886    46.307886    46.770965    16800 
     100            0     10721.52    26.127581    10994.279    11020.393    10149.886  0.033411123  -0.16755703   0.03279442            0   -91403.638   -91403.638    100296.61    46.307886    46.307886    46.770965    16800 
     101            0    10726.781    26.394104    11023.093    11002.976    10154.275  0.019641201  -0.50283227   0.20591216            0   -91403.639   -91403.639    100296.61    46.307886    46.307886    46.770965    16800 
     102            0    10719.312    26.658555    11017.802    10996.302    10143.831  0.014755197 -0.071552739   0.37302576            0   -91403.639   -91403.639    100296.61    46.307886    46.307886    46.770965    16800 
     103            0     10715.24    26.923004    10992.089    11015.392    10138.238 0.0098910113  -0.21092844   0.18765142            0    -91403.64    -91403.64    100296.61    46.307886    46.307886    46.770965    16800 
     104            0    10725.693    27.187395    11012.198    11013.693    10151.188 -0.0015005101  -0.40733793   0.31265477            0    -91403.64    -91403.64    100296.61    46.307886    46.307886    46.770965    16800 
     105            0    10723.825    27.452718    11016.408    11005.793    10149.275 -0.006346483 -0.038829369   0.23816446            0   -91403.641   -91403.641    100296.61    46.307886    46.307886    46.770965    16800 
     106            0    10707.745    27.718763    10982.319    11010.375     10130.54 -0.012972407  -0.02095223 -0.017682591            0   -91403.641   -91403.641    100296.61    46.307886    46.307886    46.770965    16800 
     107            0    10716.191     27.98323    10997.613    11008.854    10142.106 -0.021077835  -0.11875879   0.17799854            0   -91403.642   -91403.642    100296.61    46.307886    46.307886    46.770965    16800 
     108            0    10724.366    28.247612    11015.673    11005.216    10152.209 -0.024588168   0.13921792 0.00070832173            0   -91403.642   -91403.642    100296.61    46.307886    46.307886    46.770965    16800 
     109            0    10712.066    28.514226     10990.55    11010.295    10135.354 -0.025104106    0.1387358  -0.31834949            0   -91403.643   -91403.643    100296.61    46.307886    46.307886    46.770965    16800 
     110            0    10713.473    28.778533    10994.289    11011.198    10134.932 -0.023264174  0.070410139 0.00081951624            0   -91403.643   -91403.643    100296.61    46.307886    46.307886    46.770965    16800 
     111            0    10727.406    29.044886    11021.126    11009.525    10151.568 -0.022778991   0.20867024  -0.15901482            0   -91403.643   -91403.643    100296.61    46.307886    46.307886    46.770965    16800 
     112            0    10721.793    29.309226    11003.136    11015.906    10146.337 -0.020090245   0.10525057  -0.55009713            0   -91403.644   -91403.644    100296.61    46.307886    46.307886    46.770965    16800 
     113            0    10714.555    29.573882    10993.425    11011.029    10139.211 -0.016622796   0.11383972  -0.15272016            0   -91403.644   -91403.644    100296.61    46.307886    46.307886    46.770965    16800 
     114            0    10720.468    29.838539    11012.339    11002.081    10146.984 -0.013784315   0.18128251  -0.18762459            0   -91403.644   -91403.644    100296.61    46.307886    46.307886    46.770965    16800 
     115            0     10725.27    30.103524    11011.928    11011.487    10152.396 -0.0055424801 -0.018142367  -0.54203087            0   -91403.645   -91403.645    100296.61    46.307886    46.307886    46.770965    16800 
     116            0    10720.047    30.367807    11001.293    11013.801    10145.047 0.00026980121  0.041584988  -0.12874842            0   -91403.645   -91403.645    100296.61    46.307886    46.307886    46.770965    16800 
     117            0    10716.756    30.632279    11012.479    10997.252    10140.539 0.0018077536   0.12058714 -0.065937838            0   -91403.645   -91403.645    100296.61    46.307886    46.307886    46.770965    16800 
     118            0    10721.748     30.89668    11015.054    11003.817    10146.375 0.0075204227  -0.14315037  -0.29404062            0   -91403.645   -91403.645    100296.61    46.307886    46.307886    46.770965    16800 
     119            0    10723.299    31.161379     11005.69    11015.879    10148.327  0.011973269  -0.08413697 0.0071670768            0   -91403.646   -91403.646    100296.61    46.307886    46.307886    46.770965    16800 
     120            0    10714.301    31.426535    11008.583    10996.496    10137.825  0.013279088   0.02946839  0.097408072            0   -91403.646   -91403.646    100296.61    46.307886    46.307886    46.770965    16800 
     121            0    10713.587    31.691556    11010.335     10992.31    10138.115  0.015916091  -0.27931748 -0.021893209            0   -91403.646   -91403.646    100296.61    46.307886    46.307886    46.770965    16800 
     122            0     10722.41    31.956527    11005.098    11012.669    10149.463   0.01690916  -0.22706609    0.1904702            0   -91403.646   -91403.646    100296.61    46.307886    46.307886    46.770965    16800 
     123            0     10717.56    32.221038    11008.633    11001.272    10142.775   0.01573284 -0.057226703   0.20201064            0   -91403.647   -91403.647    100296.61    46.307886    46.307886    46.770965    16800 
     124            0    10713.691    32.485457    11011.893    10992.801    10136.379  0.012929854  -0.24322392   0.13030014            0   -91403.647   -91403.647    100296.61    46.307886    46.307886    46.770965    16800 
     125            0    10723.222    32.750078    11007.909    11014.381    10147.377  0.010987899  -0.17689397   0.22018777            0   -91403.647   -91403.647    100296.61    46.307886    46.307886    46.770965    16800 
     126            0    10723.588    33.014447    11011.283    11011.184    10148.295 0.0077592317  0.055401199   0.10083441            0   -91403.647   -91403.647    100296.61    46.307886    46.307886    46.770965    16800 
     127            0    10716.344    33.279127    11011.346    10996.975    10140.711 0.0015754612 -0.040085149  0.047607227            0   -91403.647   -91403.647    100296.61    46.307886    46.307886    46.770965    16800 
     128            0    10718.847    33.543577     11002.15    11010.106    10144.286 -0.001184325 -0.00035313923   0.12277585            0   -91403.647   -91403.647    100296.61    46.307886    46.307886    46.770965    16800 
     129            0    10722.668    33.808048    11005.331    11013.682    10148.991 -0.0040297501   0.16127821 -0.063696683            0   -91403.647   -91403.647    100296.61    46.307886    46.307886    46.770965    16800 
     130            0    10720.719    34.072457    11014.005    11002.023    10146.128 -0.008570455  0.091554948 -0.076636271            0   -91403.648   -91403.648    100296.61    46.307886    46.307886    46.770965    16800 
     131            0    10717.316    34.337871    11002.374    11008.005    10141.569 -0.010474419   0.10394069  0.055702955            0   -91403.648   -91403.648    100296.61    46.307886    46.307886    46.770965    16800 
     132            0    10719.449    34.603757    11000.737     11013.88    10143.731 -0.011918026   0.19049289  -0.17434141            0   -91403.648   -91403.648    100296.61    46.307886    46.307886    46.770965    16800 
     133            0    10723.547    34.868236    11014.935    11007.329    10148.378 -0.013778662   0.11534559  -0.15498227            0   -91403.648   -91403.648    100296.61    46.307886    46.307886    46.770965    16800 
     134            0    10717.805    35.133075     11003.44    11008.431    10141.544 -0.014395405   0.13511705  0.048916791            0   -91403.648   -91403.648    100296.61    46.307886    46.307886    46.770965    16800 
     135            0    10713.405     35.39753    10991.576    11011.609     10137.03 -0.012741022   0.15104425  -0.19639142            0   -91403.648   -91403.648    100296.61    46.307886    46.307886    46.770965    16800 
     136            0    10721.824    35.661864    11010.863    11006.425    10148.183  -0.01034312  0.064578491  -0.17511902            0   -91403.649   -91403.649    100296.61    46.307886    46.307886    46.770965    16800 
     137            0     10719.95    35.926282    11006.863    11007.343    10145.643 -0.0095929213   0.11562146  0.044333343            0   -91403.649   -91403.649    100296.61    46.307886    46.307886    46.770965    16800 
     138            0    10714.039     36.19078    10994.574    11010.368    10137.174 -0.0065929452  0.076613951  -0.10869031            0   -91403.649   -91403.649    100296.61    46.307886    46.307886    46.770965    16800 
     139            0    10721.307    36.455224    11012.066    11006.615    10145.239 -0.0037917972 -0.025960037  -0.10442924            0   -91403.649   -91403.649    100296.61    46.307886    46.307886    46.770965    16800 
     140            0    10723.728    36.719549    11014.753    11008.209    10148.222 -0.0017929575  0.054522288   0.10565795            0   -91403.649   -91403.649    100296.61    46.307886    46.307886    46.770965    16800 
     141            0     10717.85    36.985721    10999.486    11012.249    10141.814 0.0031157849  -0.01982222  0.018330128            0   -91403.649   -91403.649    100296.61    46.307886    46.307886    46.770965    16800 
     142            0    10718.585    37.250128    11007.098    11005.461    10143.195 0.0052115114  -0.12965308   0.01797859            0   -91403.649   -91403.649    100296.61    46.307886    46.307886    46.770965    16800 
     143            0    10721.345    37.514691    11012.325    11004.931     10146.78 0.0063104344 -0.042036127   0.13073531            0   -91403.649   -91403.649    100296.61    46.307886    46.307886    46.770965    16800 
     144            0    10721.181    37.781052     11004.29    11012.626    10146.628 0.0077459623 -0.058466469  0.062291223            0   -91403.649   -91403.649    100296.61    46.307886    46.307886    46.770965    16800 
     145            0    10718.344    38.045856     11006.41    11005.654    10142.968 0.0081823263  -0.15734688  0.069773989            0   -91403.649   -91403.649    100296.61    46.307886    46.307886    46.770965    16800 
     146            0    10718.601    38.310441    11011.765    11001.089    10142.948 0.0081303772  -0.05541338   0.11045683            0   -91403.649   -91403.649    100296.61    46.307886    46.307886    46.770965    16800 
     147            0    10722.468    38.574887     11008.48     11011.71    10147.212 0.0072941455 -0.023755949   0.01611438            0    -91403.65    -91403.65    100296.61    46.307886    46.307886    46.770965    16800 
     148            0    10720.109    38.839649    11007.934    11008.064    10144.329 0.0068036692 -0.089310581  0.050864861            0    -91403.65    -91403.65    100296.61    46.307886    46.307886    46.770965    16800 
     149            0    10716.162    39.103887    11009.388    10999.194    10139.904 0.0053145794 -0.0051199497  0.041199482            0    -91403.65    -91403.65    100296.61    46.307886    46.307886    46.770965    16800 
     150            0    10720.522    39.368426    11006.346    11009.189    10146.029 0.0024571822  0.051683762 -0.084149942            0    -91403.65    -91403.65    100296.61    46.307886    46.307886    46.770965    16800 
     151            0    10720.532    39.632886    11006.067    11009.419    10146.112  0.001344553 0.00097476465  -0.01171854            0    -91403.65    -91403.65    100296.61    46.307886    46.307886    46.770965    16800 
     152            0    10716.289    39.897208    11008.264    11000.197    10140.407 -0.00065491382  0.050630083  -0.01727918            0    -91403.65    -91403.65    100296.61    46.307886    46.307886    46.770965    16800 
     153            0    10719.454    40.162018     11007.16    11007.459    10143.742 -0.0025503472  0.066757621  -0.12904071            0    -91403.65    -91403.65    100296.61    46.307886    46.307886    46.770965    16800 
     154            0    10721.598    40.426857    11007.527    11011.021    10146.246  -0.00332202   0.03034581 -0.035251561            0    -91403.65    -91403.65    100296.61    46.307886    46.307886    46.770965    16800 
     155            0    10719.019    40.691597    11010.115    11003.679    10143.264 -0.0046099678  0.046116838 -0.0041620293            0    -91403.65    -91403.65    100296.61    46.307886    46.307886    46.770965    16800 
     156            0    10718.774    40.956377    11006.867    11006.258    10143.198 -0.0052385629  0.032850836  -0.10500573            0    -91403.65    -91403.65    100296.61    46.307886    46.307886    46.770965    16800 
     157            0    10720.219    41.221738    11005.595    11009.939    10145.122 -0.0053170597  0.015893891 -0.025730972            0    -91403.65    -91403.65    100296.61    46.307886    46.307886    46.770965    16800 
     158            0     10720.59    41.486319    11009.496    11006.475    10145.797 -0.0048421765  0.030171123  0.027844449            0    -91403.65    -91403.65    100296.61    46.307886    46.307886    46.770965    16800 
     159            0    10719.148     41.75056    11007.087    11006.316     10144.04 -0.0044065803 0.0035017382  -0.05824147            0    -91403.65    -91403.65    100296.61    46.307886    46.307886    46.770965    16800 
     160            0    10718.856    42.015039    11004.023    11009.016    10143.529 -0.0038208274 -0.0042037469  0.003354814            0    -91403.65    -91403.65    100296.61    46.307886    46.307886    46.770965    16800 
     161            0    10720.933    42.279436    11009.262    11007.844    10145.693 -0.0025390018   0.01620173  0.053422306            0    -91403.65    -91403.65    100296.61    46.307886    46.307886    46.770965    16800 
     162            0     10720.32    42.543513    11008.931    11007.195    10144.833 -0.0019250114 -0.015325139 -0.004999268            0    -91403.65    -91403.65    100296.61    46.307886    46.307886    46.770965    16800 
     163            0    10718.377    42.809924    11004.428    11008.149    10142.554 -0.0011857272 -0.022468328  0.027449528            0    -91403.65    -91403.65    100296.61    46.307886    46.307886    46.770965    16800 
     164            0    10719.692    43.074235    11007.241    11007.318    10144.517 0.00013858908 0.0054572838  0.060943106            0    -91403.65    -91403.65    100296.61    46.307886    46.307886    46.770965    16800 
     165            0    10720.244    43.338748    11008.533    11006.882    10145.316 0.00078624642 -0.026420404  0.023187272            0    -91403.65    -91403.65    100296.61    46.307886    46.307886    46.770965    16800 
     166            0    10718.586    43.603178     11004.84    11007.745    10143.174 0.0013266074  -0.03236079  0.038687631            0    -91403.65    -91403.65    100296.61    46.307886    46.307886    46.770965    16800 
     167            0    10719.157    43.868965    11006.506    11007.287    10143.678 0.0017864022 0.00045183209  0.039644435            0    -91403.65    -91403.65    100296.61    46.307886    46.307886    46.770965    16800 
     168            0    10720.284    44.133287    11008.799    11007.084    10144.969 0.0019511743 -0.016253671  0.020627644            0    -91403.65    -91403.65    100296.61    46.307886    46.307886    46.770965    16800 
     169            0     10719.73    44.397631     11006.59    11008.355    10144.245 0.0019753808 -0.018473979  0.028148738            0    -91403.65    -91403.65    100296.61    46.307886    46.307886    46.770965    16800 
     170            0    10719.302    44.661938    11006.599    11007.569     10143.74 0.0018989338  0.018122141 0.0055657022            0    -91403.65    -91403.65    100296.61    46.307886    46.307886    46.770965    16800 
     171            0    10719.859    44.926296    11008.425    11006.674    10144.479 0.0017852185 0.0093472435 -0.0052593348            0    -91403.65    -91403.65    100296.61    46.307886    46.307886    46.770965    16800 
     172            0    10720.165    45.192806    11007.438     11008.08    10144.979 0.0014494714 0.0033711558   0.01051595            0    -91403.65    -91403.65    100296.61    46.307886    46.307886    46.770965    16800 
     173            0    10719.647    45.457374     11006.64    11007.873    10144.427 0.0010764635  0.022588638 -0.014120204            0    -91403.65    -91403.65    100296.61    46.307886    46.307886    46.770965    16800 
     174            0    10719.338    45.721887    11007.664    11006.321    10144.028 0.00078217113  0.015467481 -0.020370331            0    -91403.65    -91403.65    100296.61    46.307886    46.307886    46.770965    16800 
     175            0    10720.085    45.986308    11007.733    11007.718    10144.803 0.00022326928 0.0063899213 0.0083902999            0    -91403.65    -91403.65    100296.61    46.307886    46.307886    46.770965    16800 
     176            0    10720.144     46.25063    11007.341    11008.323    10144.767 -0.00022359046  0.013954154 -0.016617275            0    -91403.65    -91403.65    100296.61    46.307886    46.307886    46.770965    16800 
     177            0    10719.326    46.514998    11007.728     11006.48    10143.768 -0.00046548028 0.0072139447 -0.023469502            0    -91403.65    -91403.65    100296.61    46.307886    46.307886    46.770965    16800 
     178            0    10719.529    46.779519    11007.575    11006.889    10144.125 -0.00082163028 0.0020056769  0.010925122            0    -91403.65    -91403.65    100296.61    46.307886    46.307886    46.770965    16800 
     179            0    10720.034    47.043896    11007.148    11008.112    10144.842 -0.001093987 0.0026818592 -0.0085565024            0    -91403.65    -91403.65    100296.61    46.307886    46.307886    46.770965    16800 
     180            0    10719.365    47.308182    11007.417    11006.655    10144.023 -0.0011880207 -0.0049211746 -0.018595866            0    -91403.65    -91403.65    100296.61    46.307886    46.307886    46.770965    16800 
     181            0     10719.25    47.572478    11007.305    11006.604    10143.839 -0.0012342644 -0.0037635153   0.01233316            0    -91403.65    -91403.65    100296.61    46.307886    46.307886    46.770965    16800 
     182            0    10719.913     47.83666    11007.083    11008.044    10144.612 -0.0012158963 -0.0046400882 0.00068119954            0    -91403.65    -91403.65    100296.61    46.307886    46.307886    46.770965    16800 
     183            0    10719.818     48.10209    11007.678    11007.318    10144.459 -0.0010920428 -0.014122438 -0.011273323            0    -91403.65    -91403.65    100296.61    46.307886    46.307886    46.770965    16800 
     184            0    10719.469    48.366454     11007.75    11006.665    10143.993 -0.00082009392 -0.008443207  0.016150399            0    -91403.65    -91403.65    100296.61    46.307886    46.307886    46.770965    16800 
     185            0    10719.753    48.630786    11007.127    11007.779    10144.354 -0.000614281 -0.0084282318 0.0093269101            0    -91403.65    -91403.65    100296.61    46.307886    46.307886    46.770965    16800 
     186            0    10719.979    48.895109    11007.645      11007.6    10144.693 -0.00039380076 -0.018865261 -0.0014559976            0    -91403.65    -91403.65    100296.61    46.307886    46.307886    46.770965    16800 
     187            0    10719.728    49.159542    11007.817    11006.885    10144.482 -3.100371e-05 -0.0093633705  0.014586632            0    -91403.65    -91403.65    100296.61    46.307886    46.307886    46.770965    16800 
     188            0    10719.443    49.423867    11006.697    11007.483     10144.15 0.00019130457 -0.0052928456 0.0089473697            0    -91403.65    -91403.65    100296.61    46.307886    46.307886    46.770965    16800 
     189            0    10719.775    49.688299    11007.146    11007.679      10144.5 0.0004671719 -0.015729238 -7.1941521e-05            0    -91403.65    -91403.65    100296.61    46.307886    46.307886    46.770965    16800 
     190            0    10720.054     49.95299    11008.178    11007.245    10144.738 0.00083388548 -0.0015131565 0.0066034515            0    -91403.65    -91403.65    100296.61    46.307886    46.307886    46.770965    16800 
     191            0    10719.536    50.217299    11007.044    11007.479    10144.084 0.00094081463 0.0052531234 -0.00079322337            0    -91403.65    -91403.65    100296.61    46.307886    46.307886    46.770965    16800 
     192            0    10719.445    50.482075    11006.815    11007.517    10144.004 0.0010156218  -0.00314788 -0.003296833            0    -91403.65    -91403.65    100296.61    46.307886    46.307886    46.770965    16800 
     193            0    10719.989    50.747475    11008.147    11007.073    10144.745  0.001064899  0.008425061 -0.0021705104            0    -91403.65    -91403.65    100296.61    46.307886    46.307886    46.770965    16800 
     194            0    10719.595    51.012292    11007.202    11007.302    10144.281 0.0010249604  0.015644697 -0.013924688            0    -91403.65    -91403.65    100296.61    46.307886    46.307886    46.770965    16800 
     195            0    10719.219    51.277159    11006.413    11007.428    10143.818 0.00088715189 0.0070453933 -0.0086894233            0    -91403.65    -91403.65    100296.61    46.307886    46.307886    46.770965    16800 
     196            0    10719.797    51.541647    11007.744    11007.141    10144.506 0.00071311643  0.011859244 -0.0055677115            0    -91403.65    -91403.65    100296.61    46.307886    46.307886    46.770965    16800 
     197            0    10719.857    51.806143    11007.509    11007.511    10144.551 0.00057781198  0.014858391 -0.018980116            0    -91403.65    -91403.65    100296.61    46.307886    46.307886    46.770965    16800 
     198            0    10719.533    52.070509    11006.656    11007.855    10144.087 0.0002280203 0.0048834287 -0.0066396954            0    -91403.65    -91403.65    100296.61    46.307886    46.307886    46.770965    16800 
     199            0    10719.701    52.335127    11007.674    11007.158    10144.271 -6.1096308e-05 0.0050894603 0.0021859383            0    -91403.65    -91403.65    100296.61    46.307886    46.307886    46.770965    16800 
     200            0    10719.929     52.59948    11007.794     11007.41    10144.582 -0.00021726684 0.0047326144   -0.0136715            0    -91403.65    -91403.65    100296.61    46.307886    46.307886    46.770965    16800 
     201            0    10719.837    52.865769    11007.006    11007.938    10144.567 -0.00051871008 -0.0020528005 -0.0008439628            0    -91403.65    -91403.65    100296.61    46.307886    46.307886    46.770965    16800 
     202            0    10719.521    53.130179    11007.314    11007.038    10144.212 -0.00066180836 -0.00031327354 0.0098689583            0    -91403.65    -91403.65    100296.61    46.307886    46.307886    46.770965    16800 
     203            0    10719.645    53.396439    11007.565    11007.024    10144.346 -0.00074661442 -0.0029499526 -0.0069872628            0    -91403.65    -91403.65    100296.61    46.307886    46.307886    46.770965    16800 
     204            0    10720.057    53.660975    11007.224     11008.18    10144.766 -0.0008726019 -0.006962324 0.0035780848            0    -91403.65    -91403.65    100296.61    46.307886    46.307886    46.770965    16800 
     205            0     10719.68    53.925677    11007.335    11007.428    10144.278 -0.00088331863 -0.0027271872  0.014682707            0    -91403.65    -91403.65    100296.61    46.307886    46.307886    46.770965    16800 
     206            0    10719.478    54.190003    11007.482     11006.92    10144.031 -0.00083683276 -0.0064854808 0.0011287732            0    -91403.65    -91403.65    100296.61    46.307886    46.307886    46.770965    16800 
     207            0    10719.933    54.454879    11007.313    11007.858     10144.63 -0.00068567964 -0.0089879375 0.0053840683            0    -91403.65    -91403.65    100296.61    46.307886    46.307886    46.770965    16800 
     208            0    10719.764    54.719532    11007.394    11007.459    10144.438 -0.000595762 -0.0027859413  0.013830878            0    -91403.65    -91403.65    100296.61    46.307886    46.307886    46.770965    16800 
     209            0    10719.384    54.983804    11007.462    11006.702    10143.988 -0.00041898675 -0.0060014786 0.0027449425            0    -91403.65    -91403.65    100296.61    46.307886    46.307886    46.770965    16800 
     210            0    10719.721    55.248663    11007.212    11007.543    10144.409 -0.000198957 -0.007181489 0.0035899943            0    -91403.65    -91403.65    100296.61    46.307886    46.307886    46.770965    16800 
     211            0    10719.812    55.513167    11007.343    11007.582     10144.51 -0.00011530624 -0.00080835119 0.0070033439            0    -91403.65    -91403.65    100296.61    46.307886    46.307886    46.770965    16800 
     212            0     10719.62    55.777602    11007.642    11006.986    10144.233 7.0731497e-05 -0.0010186636 -0.0013412905            0    -91403.65    -91403.65    100296.61    46.307886    46.307886    46.770965    16800 
     213            0    10719.679     56.04202    11007.306    11007.454    10144.277 0.00023865535 -0.0018435389 -0.0012591559            0    -91403.65    -91403.65    100296.61    46.307886    46.307886    46.770965    16800 
     214            0    10719.806    56.308481    11007.356    11007.623    10144.441 0.00029679781 0.0038408611 -0.0014188124            0    -91403.65    -91403.65    100296.61    46.307886    46.307886    46.770965    16800 
     215            0    10719.804    56.573075     11007.73    11007.195    10144.486 0.00037345389 0.0036744817 -0.006372096            0    -91403.65    -91403.65    100296.61    46.307886    46.307886    46.770965    16800 
     216            0    10719.654    56.837488    11007.359    11007.277    10144.326 0.00039807896 0.0016194471 -0.0032460274            0    -91403.65    -91403.65    100296.61    46.307886    46.307886    46.770965    16800 
     217            0    10719.656    57.101938    11007.207    11007.431    10144.331 0.00039316142 0.0044658779 -0.0045337122            0    -91403.65    -91403.65    100296.61    46.307886    46.307886    46.770965    16800 
     218            0     10719.86    57.366455     11007.71    11007.314    10144.555 0.0003356977 0.0027529139 -0.0072727033            0    -91403.65    -91403.65    100296.61    46.307886    46.307886    46.770965    16800 
     219            0     10719.74    57.630786    11007.465    11007.361    10144.395 0.00029626203 0.00042052311 -0.0014565011            0    -91403.65    -91403.65    100296.61    46.307886    46.307886    46.770965    16800 
     220            0    10719.615    57.895304    11007.154    11007.455    10144.236 0.0002517145 0.0016197293 -0.0027250319            0    -91403.65    -91403.65    100296.61    46.307886    46.307886    46.770965    16800 
     221            0    10719.783    58.159777     11007.56    11007.342    10144.447 0.00014858723 4.1867932e-05 -0.0051181002            0    -91403.65    -91403.65    100296.61    46.307886    46.307886    46.770965    16800 
     222            0     10719.77    58.424473    11007.516    11007.357    10144.436 9.7161066e-05 -0.00092876051 0.00082183553            0    -91403.65    -91403.65    100296.61    46.307886    46.307886    46.770965    16800 
     223            0    10719.598    58.688849     11007.12     11007.44    10144.234 2.6863918e-05 -0.00021309412 0.00024599859            0    -91403.65    -91403.65    100296.61    46.307886    46.307886    46.770965    16800 
     224            0    10719.681    58.953255    11007.388    11007.307    10144.348 -7.5685784e-05 -0.001552802 -0.0028365326            0    -91403.65    -91403.65    100296.61    46.307886    46.307886    46.770965    16800 
     225            0    10719.749    59.217731    11007.484    11007.333    10144.432 -0.00011334614 -0.001355478 0.0023350373            0    -91403.65    -91403.65    100296.61    46.307886    46.307886    46.770965    16800 
     226            0    10719.689     59.48217    11007.193    11007.532    10144.341 -0.00015832961 -0.00047876766 0.0024749948            0    -91403.65    -91403.65    100296.61    46.307886    46.307886    46.770965    16800 
     227            0    10719.679    59.746664    11007.319    11007.409    10144.309 -0.00020647291 -0.0019837573 -0.0013600969            0    -91403.65    -91403.65    100296.61    46.307886    46.307886    46.770965    16800 
     228            0    10719.745    60.011066    11007.483    11007.365    10144.387 -0.00022283102 -0.0010667441 0.0029382639            0    -91403.65    -91403.65    100296.61    46.307886    46.307886    46.770965    16800 
     229            0    10719.781     60.27572     11007.31    11007.586    10144.448 -0.00022504368 0.00024812831 0.0032087784            0    -91403.65    -91403.65    100296.61    46.307886    46.307886    46.770965    16800 
     230            0    10719.701    60.540307    11007.315    11007.424    10144.365 -0.00021647087 -0.0014460895 -0.00013777331            0    -91403.65    -91403.65    100296.61    46.307886    46.307886    46.770965    16800 
     231            0    10719.676    60.804778    11007.426    11007.264    10144.339 -0.00020186677 -0.00040496513 0.0022487961            0    -91403.65    -91403.65    100296.61    46.307886    46.307886    46.770965    16800 
     232            0    10719.793    61.069307    11007.363     11007.54    10144.476 -0.00014405509 0.0017580985 0.0020333706            0    -91403.65    -91403.65    100296.61    46.307886    46.307886    46.770965    16800 
     233            0    10719.756     61.33396    11007.344      11007.5    10144.422 -9.4133774e-05 -0.00011132366 -0.00085791598            0    -91403.65    -91403.65    100296.61    46.307886    46.307886    46.770965    16800 
     234            0    10719.658    61.599597    11007.414    11007.263    10144.296 -5.8420779e-05 0.00084283462 0.00044086692            0    -91403.65    -91403.65    100296.61    46.307886    46.307886    46.770965    16800 
     235            0    10719.743    61.864697     11007.38    11007.453    10144.397 7.4281424e-06 0.0029868658 -0.0003892703            0    -91403.65    -91403.65    100296.61    46.307886    46.307886    46.770965    16800 
     236            0    10719.772    62.129544    11007.372     11007.51    10144.432 5.0949504e-05 0.0011379139 -0.0015998773            0    -91403.65    -91403.65    100296.61    46.307886    46.307886    46.770965    16800 
     237            0    10719.658    62.394066    11007.434    11007.241    10144.298 8.6208131e-05 0.0014054556 -0.00050095069            0    -91403.65    -91403.65    100296.61    46.307886    46.307886    46.770965    16800 
     238            0     10719.67    62.658691    11007.374    11007.311    10144.326 0.00013887033 0.0029895881 -0.0018908765            0    -91403.65    -91403.65    100296.61    46.307886    46.307886    46.770965    16800 
     239            0    10719.739    62.923131    11007.362     11007.44    10144.414 0.00016444556 0.0010536171 -0.0015822562            0    -91403.65    -91403.65    100296.61    46.307886    46.307886    46.770965    16800 
     240            0    10719.708    63.187653     11007.47    11007.286    10144.369 0.00017120134 0.00062630607 0.00010547463            0    -91403.65    -91403.65    100296.61    46.307886    46.307886    46.770965    16800 
     241            0    10719.682    63.452288    11007.421    11007.304    10144.321 0.00016927061 0.0012119782   -0.0015889            0    -91403.65    -91403.65    100296.61    46.307886    46.307886    46.770965    16800 
     242            0    10719.733     63.71689    11007.351    11007.473    10144.375 0.00016038627 -0.00053507467 -0.00035724576            0    -91403.65    -91403.65    100296.61    46.307886    46.307886    46.770965    16800 
     243            0    10719.774    63.981462    11007.511    11007.379    10144.433 0.00013348324 -0.0010905021 0.0025285536            0    -91403.65    -91403.65    100296.61    46.307886    46.307886    46.770965    16800 
     244            0    10719.721    64.247001    11007.472     11007.31    10144.382 9.3693793e-05 -0.0009418601 -4.4512732e-05            0    -91403.65    -91403.65    100296.61    46.307886    46.307886    46.770965    16800 
     245            0    10719.683    64.511453    11007.307    11007.401    10144.342 6.5796362e-05 -0.0019066843 0.00089209296            0    -91403.65    -91403.65    100296.61    46.307886    46.307886    46.770965    16800 
     246            0    10719.758    64.775982    11007.459     11007.38    10144.436 1.7669712e-05 -0.0015044968 0.0041884369            0    -91403.65    -91403.65    100296.61    46.307886    46.307886    46.770965    16800 
     247            0    10719.766    65.040635    11007.524    11007.333    10144.442 -4.7286933e-05 -0.0013526262 0.00068606052            0    -91403.65    -91403.65    100296.61    46.307886    46.307886    46.770965    16800 
     248            0    10719.669    65.305112    11007.291    11007.398    10144.317 -8.12329e-05 -0.0018779756 0.00081114674            0    -91403.65    -91403.65    100296.61    46.307886    46.307886    46.770965    16800 
     249            0    10719.708    65.569421    11007.361    11007.406    10144.358 -0.00011729895 -0.00060853614 0.0037823735            0    -91403.65    -91403.65    100296.61    46.307886    46.307886    46.770965    16800 
     250            0    10719.774     65.83378    11007.495    11007.393    10144.434 -0.0001515549 -0.00077748596 0.00054050672            0    -91403.65    -91403.65    100296.61    46.307886    46.307886    46.770965    16800 
     251            0    10719.687    66.098592    11007.292    11007.439    10144.329 -0.00016245205 -0.0014057482 -0.0001137959            0    -91403.65    -91403.65    100296.61    46.307886    46.307886    46.770965    16800 
     252            0    10719.652    66.363003     11007.26    11007.397      10144.3 -0.000167183 0.00064233276 0.0023049045            0    -91403.65    -91403.65    100296.61    46.307886    46.307886    46.770965    16800 
     253            0     10719.73     66.62753    11007.447    11007.338    10144.407 -0.00016423804 0.00034564916 -0.00060648507            0    -91403.65    -91403.65    100296.61    46.307886    46.307886    46.770965    16800 
     254            0    10719.715    66.891901    11007.338    11007.423    10144.385 -0.00015223584 -0.00059687018 -0.0014275992            0    -91403.65    -91403.65    100296.61    46.307886    46.307886    46.770965    16800 
     255            0    10719.678    67.156425    11007.272    11007.436    10144.326 -0.00012165518 0.0016367458 -5.8501449e-05            0    -91403.65    -91403.65    100296.61    46.307886    46.307886    46.770965    16800 
     256            0     10719.72    67.420887    11007.436    11007.357    10144.365 -8.6026891e-05 0.0015420974 -0.0019068782            0    -91403.65    -91403.65    100296.61    46.307886    46.307886    46.770965    16800 
     257            0    10719.761    67.685373    11007.402    11007.465    10144.417 -5.468434e-05 0.00013357524 -0.0022186116            0    -91403.65    -91403.65    100296.61    46.307886    46.307886    46.770965    16800 
     258            0    10719.736    67.950254    11007.314      11007.5    10144.394 -2.5671103e-07 0.0021545332 -0.0014424354            0    -91403.65    -91403.65    100296.61    46.307886    46.307886    46.770965    16800 
     259            0    10719.692    68.214786    11007.393    11007.337    10144.347 3.1713911e-05 0.0019666625 -0.0023463847            0    -91403.65    -91403.65    100296.61    46.307886    46.307886    46.770965    16800 
     260            0    10719.729    68.479299    11007.403    11007.388    10144.396 5.3714983e-05 0.00027374339 -0.0015151515            0    -91403.65    -91403.65    100296.61    46.307886    46.307886    46.770965    16800 
     261            0    10719.765    68.743915    11007.358    11007.493    10144.442 9.500694e-05 0.0010415238 -0.00061680531            0    -91403.65    -91403.65    100296.61    46.307886    46.307886    46.770965    16800 
     262            0    10719.688     69.00829    11007.401    11007.317    10144.346 0.00011311316 0.00070704121 -0.0011980247            0    -91403.65    -91403.65    100296.61    46.307886    46.307886    46.770965    16800 
     263            0    10719.692    69.272564    11007.411     11007.32    10144.344 0.00012079001 -0.00086673003 0.00052430153            0    -91403.65    -91403.65    100296.61    46.307886    46.307886    46.770965    16800 
     264            0    10719.761    69.536923    11007.385     11007.48    10144.419 0.00012506901 -0.00050031409 0.00099904002            0    -91403.65    -91403.65    100296.61    46.307886    46.307886    46.770965    16800 
     265            0    10719.717    69.801617    11007.411    11007.375    10144.364 0.00012045119 -0.00057059969 1.0974144e-05            0    -91403.65    -91403.65    100296.61    46.307886    46.307886    46.770965    16800 
     266            0    10719.675    70.066399    11007.407    11007.299    10144.319 0.00010478614 -0.0014361984 0.0019196797            0    -91403.65    -91403.65    100296.61    46.307886    46.307886    46.770965    16800 
     267            0    10719.723    70.330767    11007.359    11007.421     10144.39 7.2919807e-05 -0.00087302764 0.0019977417            0    -91403.65    -91403.65    100296.61    46.307886    46.307886    46.770965    16800 
     268            0    10719.724    70.595172    11007.402    11007.379    10144.392 5.7848559e-05 -0.00091578135 0.00046981643            0    -91403.65    -91403.65    100296.61    46.307886    46.307886    46.770965    16800 
     269            0    10719.697    70.860091     11007.43    11007.308    10144.353 3.100095e-05 -0.0010691889 0.0019469559            0    -91403.65    -91403.65    100296.61    46.307886    46.307886    46.770965    16800 
     270            0    10719.712    71.125262    11007.371    11007.401    10144.362 -3.1411726e-06 -0.00040231781 0.0018375575            0    -91403.65    -91403.65    100296.61    46.307886    46.307886    46.770965    16800 
     271            0    10719.739    71.390057     11007.41    11007.413    10144.395 -1.9819943e-05 -0.00065998101 -2.0595503e-06            0    -91403.65    -91403.65    100296.61    46.307886    46.307886    46.770965    16800 
     272            0    10719.743    71.654385    11007.467    11007.362      10144.4 -5.482466e-05 -0.0003933571 0.0010073293            0    -91403.65    -91403.65    100296.61    46.307886    46.307886    46.770965    16800 
     273            0    10719.705    71.921518    11007.359    11007.398    10144.357 -7.8252485e-05 0.00036707667 0.00097138305            0    -91403.65    -91403.65    100296.61    46.307886    46.307886    46.770965    16800 
     274            0    10719.716    72.186775    11007.364    11007.411    10144.373 -8.5062454e-05 -0.00013175768 -0.00056248601            0    -91403.65    -91403.65    100296.61    46.307886    46.307886    46.770965    16800 
     275            0    10719.752    72.452248    11007.456    11007.377    10144.423 -9.3088771e-05 0.00014659218 -0.00010229406            0    -91403.65    -91403.65    100296.61    46.307886    46.307886    46.770965    16800 
     276            0    10719.707    72.716598    11007.372     11007.38    10144.369 -9.36309e-05 0.00095096423 -8.3139079e-06            0    -91403.65    -91403.65    100296.61    46.307886    46.307886    46.770965    16800 
     277            0    10719.693    72.981052    11007.341     11007.39     10144.35 -8.9060643e-05 0.00030553757 -0.0011036614            0    -91403.65    -91403.65    100296.61    46.307886    46.307886    46.770965    16800 
     278            0    10719.743     73.24541    11007.435    11007.392    10144.402 -7.2130384e-05 0.00040959761 -0.00071303712            0    -91403.65    -91403.65    100296.61    46.307886    46.307886    46.770965    16800 
     279            0    10719.727    73.509794    11007.396    11007.404     10144.38 -6.1880897e-05   0.00109109 -0.0006537027            0    -91403.65    -91403.65    100296.61    46.307886    46.307886    46.770965    16800 
     280            0    10719.694    73.774794    11007.335    11007.406    10144.342 -4.6321919e-05 0.0003754581 -0.0011454838            0    -91403.65    -91403.65    100296.61    46.307886    46.307886    46.770965    16800 
     281            0    10719.716    74.039355    11007.395    11007.377    10144.377 -8.7576164e-06 4.1165844e-05 -0.00042891877            0    -91403.65    -91403.65    100296.61    46.307886    46.307886    46.770965    16800 
     282            0    10719.724    74.303801    11007.393    11007.391    10144.388 5.3113799e-06 0.00062761443 -0.00057771197            0    -91403.65    -91403.65    100296.61    46.307886    46.307886    46.770965    16800 
     283            0    10719.708    74.568134     11007.35    11007.407    10144.368 2.2285216e-05 -4.0542201e-05 -0.00062172464            0    -91403.65    -91403.65    100296.61    46.307886    46.307886    46.770965    16800 
     284            0    10719.707      74.8326     11007.39    11007.368    10144.362 4.5170101e-05 -0.00049059057 0.00029063063            0    -91403.65    -91403.65    100296.61    46.307886    46.307886    46.770965    16800 
     285            0    10719.724    75.096955     11007.41     11007.38    10144.381 5.347322e-05 -5.4181148e-05 -0.00015881594            0    -91403.65    -91403.65    100296.61    46.307886    46.307886    46.770965    16800 
     286            0     10719.74    75.361477    11007.386    11007.435      10144.4 6.5964575e-05 -0.00061858957 -0.00010297481            0    -91403.65    -91403.65    100296.61    46.307886    46.307886    46.770965    16800 
     287            0    10719.712    75.625906    11007.386    11007.384    10144.365 7.4784633e-05 -0.00091201422 0.0010764258            0    -91403.65    -91403.65    100296.61    46.307886    46.307886    46.770965    16800 
     288            0    10719.712    75.890448    11007.396    11007.373    10144.366 7.5474226e-05 -0.00057020802 0.00033580126            0    -91403.65    -91403.65    100296.61    46.307886    46.307886    46.770965    16800 
     289            0    10719.744    76.154822    11007.392    11007.429     10144.41 6.8089539e-05 -0.00070014824 -3.1153869e-06            0    -91403.65    -91403.65    100296.61    46.307886    46.307886    46.770965    16800 
     290            0    10719.717    76.419219    11007.385    11007.386    10144.381 5.8946403e-05 -0.0005661487 0.0010601609            0    -91403.65    -91403.65    100296.61    46.307886    46.307886    46.770965    16800 
     291            0    10719.696    76.683866    11007.387    11007.348    10144.354 5.0268332e-05 -0.00028976779 0.00019941147            0    -91403.65    -91403.65    100296.61    46.307886    46.307886    46.770965    16800 
     292            0    10719.733    76.948347    11007.396     11007.41    10144.393 2.7469796e-05 -0.00030801005 -0.000429306            0    -91403.65    -91403.65    100296.61    46.307886    46.307886    46.770965    16800 
     293            0     10719.73    77.212773    11007.401    11007.403    10144.387 1.5499385e-05 -8.5634701e-06 0.00051311125            0    -91403.65    -91403.65    100296.61    46.307886    46.307886    46.770965    16800 
     294            0    10719.705      77.4773    11007.397    11007.362    10144.356 5.7380904e-06 0.00011130094 -6.8541422e-05            0    -91403.65    -91403.65    100296.61    46.307886    46.307886    46.770965    16800 
     295            0    10719.714    77.742087    11007.378    11007.393    10144.371 -1.543629e-05 -0.00011925441 -0.00070790164            0    -91403.65    -91403.65    100296.61    46.307886    46.307886    46.770965    16800 
     296            0    10719.724    78.006587    11007.383    11007.404    10144.385 -2.5821818e-05 0.00025288636 9.2939547e-05            0    -91403.65    -91403.65    100296.61    46.307886    46.307886    46.770965    16800 
     297            0    10719.714    78.271406    11007.396    11007.374    10144.373 -3.321002e-05 0.00034107909 -0.00026484707            0    -91403.65    -91403.65    100296.61    46.307886    46.307886    46.770965    16800 
     298            0    10719.708    78.535984     11007.38     11007.38    10144.364 -4.166977e-05 -1.6322009e-05 -0.00067873294            0    -91403.65    -91403.65    100296.61    46.307886    46.307886    46.770965    16800 
     299            0    10719.719    78.800425    11007.384    11007.396    10144.377 -4.4624196e-05 0.00035323758 -0.00014176582            0    -91403.65    -91403.65    100296.61    46.307886    46.307886    46.770965    16800 
     300            0    10719.732    79.066787    11007.417    11007.388    10144.392 -4.4235097e-05 0.00049779464 -0.00034085988            0    -91403.65    -91403.65    100296.61    46.307886    46.307886    46.770965    16800 
     301            0    10719.718    79.331321    11007.394    11007.387    10144.373 -4.0923016e-05 -2.9040479e-05 -0.00048203473            0    -91403.65    -91403.65    100296.61    46.307886    46.307886    46.770965    16800 
     302            0    10719.713    79.596151    11007.376    11007.397    10144.367 -3.7628102e-05 0.00029424744 -0.00011472099            0    -91403.65    -91403.65    100296.61    46.307886    46.307886    46.770965    16800 
     303            0    10719.735    79.860356    11007.411    11007.398    10144.397 -2.8722992e-05 0.0004249152 -0.00025189931            0    -91403.65    -91403.65    100296.61    46.307886    46.307886    46.770965    16800 
     304            0    10719.725    80.124896    11007.396    11007.391    10144.388 -1.7386361e-05 -0.00021854725 -3.9604188e-06            0    -91403.65    -91403.65    100296.61    46.307886    46.307886    46.770965    16800 
     305            0    10719.702    80.389203    11007.358    11007.387     10144.36 -8.6406034e-06 -4.9349804e-05 0.00027351199            0    -91403.65    -91403.65    100296.61    46.307886    46.307886    46.770965    16800 
     306            0    10719.725     80.65368    11007.401    11007.388    10144.385 8.0149472e-06 7.2236118e-05 -3.5536551e-05            0    -91403.65    -91403.65    100296.61    46.307886    46.307886    46.770965    16800 
     307            0    10719.732    80.917985    11007.414    11007.392    10144.391 2.1214144e-05 -0.00052391058 0.00051039534            0    -91403.65    -91403.65    100296.61    46.307886    46.307886    46.770965    16800 
     308            0    10719.709    81.182403    11007.373    11007.391    10144.361 2.7826484e-05 -0.00040267915 0.00069797501            0    -91403.65    -91403.65    100296.61    46.307886    46.307886    46.770965    16800 
     309            0    10719.709    81.446892    11007.384    11007.381    10144.364 3.7496437e-05 -0.00012141107 -6.7676498e-05            0    -91403.65    -91403.65    100296.61    46.307886    46.307886    46.770965    16800 
     310            0    10719.726    81.711577    11007.406    11007.386    10144.386 4.5352323e-05 -0.00041582343 0.00051649645            0    -91403.65    -91403.65    100296.61    46.307886    46.307886    46.770965    16800 
     311            0    10719.716    81.975847    11007.372    11007.401    10144.374 4.7533367e-05 -0.00021983723 0.00073608225            0    -91403.65    -91403.65    100296.61    46.307886    46.307886    46.770965    16800 
     312            0    10719.705    82.240876    11007.371    11007.382    10144.362 4.6992066e-05 2.1180351e-05 -0.00030899994            0    -91403.65    -91403.65    100296.61    46.307886    46.307886    46.770965    16800 
     313            0    10719.716    82.505567    11007.399    11007.374    10144.375 4.4644268e-05 -5.1370192e-05 0.00016451983            0    -91403.65    -91403.65    100296.61    46.307886    46.307886    46.770965    16800 
     314            0    10719.729    82.770775    11007.391    11007.406    10144.389 3.881445e-05 0.0001658178 0.00049838606            0    -91403.65    -91403.65    100296.61    46.307886    46.307886    46.770965    16800 
     315            0     10719.72    83.036711    11007.385      11007.4    10144.376 2.6269245e-05 0.00020454422 -0.00062845862            0    -91403.65    -91403.65    100296.61    46.307886    46.307886    46.770965    16800 
     316            0    10719.712    83.301456      11007.4    11007.371    10144.366 1.6103955e-05 0.0001794279 -0.00026575548            0    -91403.65    -91403.65    100296.61    46.307886    46.307886    46.770965    16800 
     317            0     10719.73    83.641069    11007.396    11007.404    10144.389 6.8582273e-06 0.00043773396 0.00015953238            0    -91403.65    -91403.65    100296.61    46.307886    46.307886    46.770965    16800 
     318            0     10719.73    83.905216    11007.384    11007.413    10144.392 -7.051142e-06 0.00025307728 -0.00067790995            0    -91403.65    -91403.65    100296.61    46.307886    46.307886    46.770965    16800 
     319            0    10719.705    84.169554    11007.384    11007.369    10144.364 -1.5936984e-05 0.00017891433 -0.00044927098            0    -91403.65    -91403.65    100296.61    46.307886    46.307886    46.770965    16800 
     320            0    10719.716    84.433907    11007.384    11007.388    10144.375 -2.4609982e-05 0.00052378631 -9.0284439e-06            0    -91403.65    -91403.65    100296.61    46.307886    46.307886    46.770965    16800 
     321            0    10719.733    84.698376    11007.389    11007.416    10144.393 -3.555772e-05 0.00018891063 -0.00056254576            0    -91403.65    -91403.65    100296.61    46.307886    46.307886    46.770965    16800 
     322            0    10719.713    84.962908    11007.395    11007.376    10144.368 -3.8958023e-05 3.3896016e-05 -0.00037787125            0    -91403.65    -91403.65    100296.61    46.307886    46.307886    46.770965    16800 
     323            0    10719.708    85.227994    11007.387    11007.374    10144.361 -3.9919383e-05 0.00038332242 -7.5369064e-05            0    -91403.65    -91403.65    100296.61    46.307886    46.307886    46.770965    16800 
     324            0    10719.726    85.492781    11007.381    11007.412    10144.384 -3.9058868e-05 -1.4520436e-05 -0.00026107142            0    -91403.65    -91403.65    100296.61    46.307886    46.307886    46.770965    16800 
     325            0    10719.719    85.757231    11007.397    11007.384    10144.378 -3.6350946e-05 -0.00030344736  4.04173e-05            0    -91403.65    -91403.65    100296.61    46.307886    46.307886    46.770965    16800 
     326            0    10719.707    86.021695    11007.389    11007.369    10144.363 -2.9759162e-05 3.7949465e-05 0.00016663373            0    -91403.65    -91403.65    100296.61    46.307886    46.307886    46.770965    16800 
     327            0    10719.714    86.286159    11007.369    11007.401    10144.373 -2.065578e-05 -0.00031000612 0.00014335234            0    -91403.65    -91403.65    100296.61    46.307886    46.307886    46.770965    16800 
     328            0    10719.725    86.550472    11007.398    11007.393    10144.386 -1.4621705e-05 -0.00059114391 0.00055226796            0    -91403.65    -91403.65    100296.61    46.307886    46.307886    46.770965    16800 
     329            0    10719.723      86.8148    11007.415    11007.374    10144.381 -1.1347415e-06 -0.00021783779 0.00039533399            0    -91403.65    -91403.65    100296.61    46.307886    46.307886    46.770965    16800 
     330            0    10719.712    87.079077    11007.377    11007.395    10144.365 1.2790056e-05 -0.00038335648 0.00028470452            0    -91403.65    -91403.65    100296.61    46.307886    46.307886    46.770965    16800 
     331            0    10719.725    87.343571    11007.398    11007.395    10144.381 1.8703337e-05 -0.00055891945 0.00080832814            0    -91403.65    -91403.65    100296.61    46.307886    46.307886    46.770965    16800 
     332            0    10719.733    87.608063     11007.42    11007.384    10144.394 2.8103066e-05 -0.0001595487 0.0003824342            0    -91403.65    -91403.65    100296.61    46.307886    46.307886    46.770965    16800 
     333            0     10719.71    87.872583    11007.371     11007.39    10144.368 3.3424882e-05 -0.00014126372 7.7862216e-05            0    -91403.65    -91403.65    100296.61    46.307886    46.307886    46.770965    16800 
     334            0    10719.712    88.139224    11007.375     11007.39     10144.37 3.5059619e-05 -0.00017088435 0.00065858956            0    -91403.65    -91403.65    100296.61    46.307886    46.307886    46.770965    16800 
     335            0    10719.732    88.403669    11007.418    11007.385    10144.393 3.5813695e-05 0.00022287738 8.5626794e-05            0    -91403.65    -91403.65    100296.61    46.307886    46.307886    46.770965    16800 
     336            0    10719.717    88.668037    11007.386    11007.392    10144.374 3.4539361e-05 0.00021133665 -0.00032752023            0    -91403.65    -91403.65    100296.61    46.307886    46.307886    46.770965    16800 
     337            0    10719.709    88.932598    11007.375    11007.389    10144.363 3.1377989e-05 0.00024108736 0.00023203985            0    -91403.65    -91403.65    100296.61    46.307886    46.307886    46.770965    16800 
     338            0    10719.723    89.196999    11007.411    11007.378     10144.38 2.1752996e-05 0.00039243034 -0.00011012293            0    -91403.65    -91403.65    100296.61    46.307886    46.307886    46.770965    16800 
     339            0    10719.722    89.461579    11007.395    11007.392     10144.38 1.6052808e-05 0.00023806489 -0.00053790081            0    -91403.65    -91403.65    100296.61    46.307886    46.307886    46.770965    16800 
     340            0    10719.712    89.725912    11007.372    11007.395    10144.368 7.8653878e-06 0.0003042816 2.8876799e-05            0    -91403.65    -91403.65    100296.61    46.307886    46.307886    46.770965    16800 
     341            0    10719.713    89.990302    11007.391    11007.376    10144.371 -5.1755193e-06 0.00034778726 -0.00015605198            0    -91403.65    -91403.65    100296.61    46.307886    46.307886    46.770965    16800 
     342            0    10719.721    90.254702    11007.391     11007.39    10144.381 -9.5567463e-06 0.00011541544 -0.00046578948            0    -91403.65    -91403.65    100296.61    46.307886    46.307886    46.770965    16800 
     343            0    10719.724    90.518995    11007.379    11007.409    10144.383 -1.6732045e-05 0.00018597685 -2.0290262e-05            0    -91403.65    -91403.65    100296.61    46.307886    46.307886    46.770965    16800 
     344            0    10719.713    90.783525    11007.393    11007.379    10144.367 -2.5944319e-05 0.00024421981 -5.811012e-05            0    -91403.65    -91403.65    100296.61    46.307886    46.307886    46.770965    16800 
     345            0    10719.719    91.047816    11007.397    11007.386    10144.375 -2.8610789e-05 -7.6597155e-05 -0.00023404668            0    -91403.65    -91403.65    100296.61    46.307886    46.307886    46.770965    16800 
     346            0    10719.732    91.312285    11007.388    11007.415    10144.392 -3.1240343e-05 -5.7268272e-05 0.00014103927            0    -91403.65    -91403.65    100296.61    46.307886    46.307886    46.770965    16800 
     347            0    10719.714    91.578961    11007.386    11007.384    10144.372 -3.177296e-05  2.73429e-05 8.5592801e-05            0    -91403.65    -91403.65    100296.61    46.307886    46.307886    46.770965    16800 
     348            0     10719.71    91.843912    11007.386    11007.377    10144.368 -3.0507122e-05 -0.000296803 8.645329e-05            0    -91403.65    -91403.65    100296.61    46.307886    46.307886    46.770965    16800 
     349            0    10719.729    92.108454    11007.383    11007.414    10144.391 -2.3598649e-05 -0.00034102611 0.00042203023            0    -91403.65    -91403.65    100296.61    46.307886    46.307886    46.770965    16800 
     350            0     10719.72    92.372998    11007.387    11007.395    10144.379 -1.8454385e-05 -0.00019016345 0.00020236367            0    -91403.65    -91403.65    100296.61    46.307886    46.307886    46.770965    16800 
     351            0     10719.71    92.637398    11007.387    11007.377    10144.366 -1.4387907e-05 -0.00042612259 0.0003032907            0    -91403.65    -91403.65    100296.61    46.307886    46.307886    46.770965    16800 
     352            0    10719.721     92.90173    11007.384    11007.401    10144.378 -3.2768735e-06 -0.00034896203 0.00049195331            0    -91403.65    -91403.65    100296.61    46.307886    46.307886    46.770965    16800 
     353            0    10719.723    93.168834    11007.393    11007.396     10144.38 2.5353807e-06 -0.00013429914 5.0819282e-05            0    -91403.65    -91403.65    100296.61    46.307886    46.307886    46.770965    16800 
     354            0    10719.715    93.433777    11007.397    11007.376    10144.371 8.3989423e-06 -0.00023455176 0.00014228907            0    -91403.65    -91403.65    100296.61    46.307886    46.307886    46.770965    16800 
     355            0    10719.712    93.698776    11007.377    11007.389     10144.37 1.8446402e-05 -5.1318934e-05 0.00029755285            0    -91403.65    -91403.65    100296.61    46.307886    46.307886    46.770965    16800 
     356            0    10719.718    93.963114    11007.384    11007.393    10144.378 2.1568893e-05 9.6125335e-05 -0.00022394014            0    -91403.65    -91403.65    100296.61    46.307886    46.307886    46.770965    16800 
     357            0    10719.723    94.227816    11007.403    11007.384    10144.382 2.3963302e-05 4.4142507e-05 -0.00018013401            0    -91403.65    -91403.65    100296.61    46.307886    46.307886    46.770965    16800 
     358            0    10719.714    94.492096    11007.385    11007.389     10144.37 2.6062874e-05 0.00017005219 0.0001426163            0    -91403.65    -91403.65    100296.61    46.307886    46.307886    46.770965    16800 
     359            0    10719.717    94.756548    11007.385    11007.394    10144.372 2.6058122e-05 0.0002077998 -0.00040818496            0    -91403.65    -91403.65    100296.61    46.307886    46.307886    46.770965    16800 
     360            0     10719.73    95.021104    11007.412    11007.388    10144.389 2.3511715e-05 0.00011242026 -0.00038443831            0    -91403.65    -91403.65    100296.61    46.307886    46.307886    46.770965    16800 
     361            0    10719.719    95.285667    11007.393    11007.386    10144.377 1.973451e-05 0.00020649768 2.7840297e-05            0    -91403.65    -91403.65    100296.61    46.307886    46.307886    46.770965    16800 
     362            0    10719.712    95.550306    11007.381    11007.386    10144.369 1.7003589e-05 0.00014970473 -0.00036961004            0    -91403.65    -91403.65    100296.61    46.307886    46.307886    46.770965    16800 
     363            0    10719.725    95.814829    11007.404    11007.385    10144.386 8.3847987e-06 -1.9267991e-05 -0.00035061194            0    -91403.65    -91403.65    100296.61    46.307886    46.307886    46.770965    16800 
     364            0    10719.722    96.079336    11007.396    11007.389    10144.382 7.4263457e-07 0.00012492652 0.00012031531            0    -91403.65    -91403.65    100296.61    46.307886    46.307886    46.770965    16800 
     365            0    10719.713    96.343698    11007.379    11007.391     10144.37 -3.2501589e-06 3.1700976e-05 -0.00015411445            0    -91403.65    -91403.65    100296.61    46.307886    46.307886    46.770965    16800 
     366            0    10719.718    96.608297    11007.394    11007.385    10144.374 -9.774676e-06 -0.00014593661 -0.00011751925            0    -91403.65    -91403.65    100296.61    46.307886    46.307886    46.770965    16800 
     367            0    10719.722    96.872535    11007.399    11007.389    10144.379 -1.3704913e-05 2.5714313e-05 0.00017650501            0    -91403.65    -91403.65    100296.61    46.307886    46.307886    46.770965    16800 
     368            0    10719.718      97.1371    11007.386    11007.394    10144.375 -1.5990717e-05 -4.6755204e-05 2.3309447e-05            0    -91403.65    -91403.65    100296.61    46.307886    46.307886    46.770965    16800 
     369            0    10719.713    97.401486    11007.386    11007.383     10144.37 -1.8819724e-05 -0.00025446589 0.00012513786            0    -91403.65    -91403.65    100296.61    46.307886    46.307886    46.770965    16800 
     370            0    10719.717     97.66595     11007.39    11007.384    10144.375 -1.9706512e-05 -7.0261773e-05 0.00025476737            0    -91403.65    -91403.65    100296.61    46.307886    46.307886    46.770965    16800 
     371            0    10719.722    97.930532    11007.387    11007.398    10144.382 -1.8964315e-05 -8.7035952e-05 0.0001288628            0    -91403.65    -91403.65    100296.61    46.307886    46.307886    46.770965    16800 
     372            0    10719.717    98.194938    11007.385    11007.391    10144.374 -1.6158014e-05 -0.00023270131 0.00025739836            0    -91403.65    -91403.65    100296.61    46.307886    46.307886    46.770965    16800 
     373            0    10719.716    98.459262    11007.388    11007.387    10144.372 -1.3746012e-05 -6.2596103e-05 0.00021478341            0    -91403.65    -91403.65    100296.61    46.307886    46.307886    46.770965    16800 
     374            0    10719.725    98.723808    11007.391    11007.401    10144.384 -1.000203e-05 -1.616151e-05 3.6851691e-06            0    -91403.65    -91403.65    100296.61    46.307886    46.307886    46.770965    16800 
     375            0    10719.722    98.989714     11007.39    11007.395     10144.38 -4.8919071e-06 -8.5060741e-05 0.00018488601            0    -91403.65    -91403.65    100296.61    46.307886    46.307886    46.770965    16800 
     376            0    10719.714    99.254123    11007.388    11007.383    10144.371 -1.8022141e-06 4.2434995e-05 6.8266495e-05            0    -91403.65    -91403.65    100296.61    46.307886    46.307886    46.770965    16800 
     377            0    10719.721    99.518538    11007.388    11007.394     10144.38 2.4218553e-06 9.8744161e-05 -0.0002336539            0    -91403.65    -91403.65    100296.61    46.307886    46.307886    46.770965    16800 
     378            0    10719.722    99.782875    11007.389    11007.396    10144.382 7.3420425e-06 7.2798025e-05 1.6048848e-05            0    -91403.65    -91403.65    100296.61    46.307886    46.307886    46.770965    16800 
     379            0    10719.715    100.04702    11007.387    11007.385    10144.373 9.6901808e-06 0.00014652868 -7.4056304e-05            0    -91403.65    -91403.65    100296.61    46.307886    46.307886    46.770965    16800 
     380            0    10719.716    100.31144    11007.386    11007.389    10144.373 1.1455787e-05 0.00013027881 -0.00036264585            0    -91403.65    -91403.65    100296.61    46.307886    46.307886    46.770965    16800 
     381            0    10719.721    100.57575    11007.389    11007.395    10144.378 1.2758003e-05 9.8905919e-05 -7.8251325e-05            0    -91403.65    -91403.65    100296.61    46.307886    46.307886    46.770965    16800 
     382            0    10719.719    100.84051    11007.393    11007.388    10144.376 1.2843329e-05 0.00011996015 -7.2002206e-05            0    -91403.65    -91403.65    100296.61    46.307886    46.307886    46.770965    16800 
     383            0    10719.715    101.10566    11007.388    11007.385    10144.372 1.1731569e-05 1.9418096e-05 -0.00035438975            0    -91403.65    -91403.65    100296.61    46.307886    46.307886    46.770965    16800 
     384            0    10719.717    101.37013    11007.387    11007.388    10144.375 1.0152764e-05 -8.3774389e-06 -4.1952365e-05            0    -91403.65    -91403.65    100296.61    46.307886    46.307886    46.770965    16800 
     385            0     10719.72    101.63469    11007.393    11007.388    10144.379 8.7814577e-06 1.9010102e-05 1.8825605e-05            0    -91403.65    -91403.65    100296.61    46.307886    46.307886    46.770965    16800 
     386            0    10719.718    101.89904    11007.391    11007.387    10144.376 5.9375689e-06 -8.6086923e-05 -0.00019271175            0    -91403.65    -91403.65    100296.61    46.307886    46.307886    46.770965    16800 
     387            0    10719.716    102.16329    11007.385     11007.39    10144.373 2.632927e-06 -7.8724071e-05 3.0062185e-05            0    -91403.65    -91403.65    100296.61    46.307886    46.307886    46.770965    16800 
     388            0    10719.722    102.42777    11007.394    11007.391     10144.38 1.4885302e-07 -1.5122695e-05 0.00010715533            0    -91403.65    -91403.65    100296.61    46.307886    46.307886    46.770965    16800 
     389            0    10719.722    102.69203    11007.396     11007.39     10144.38 -3.6575714e-06 -0.00013014564 -4.2535087e-05            0    -91403.65    -91403.65    100296.61    46.307886    46.307886    46.770965    16800 
     390            0    10719.716     102.9562    11007.387    11007.388    10144.373 -6.1103083e-06 -0.00011071208 9.3929829e-05            0    -91403.65    -91403.65    100296.61    46.307886    46.307886    46.770965    16800 
     391            0    10719.718    103.22069    11007.391    11007.388    10144.376 -7.2230347e-06 -3.1699124e-05 0.00011467612            0    -91403.65    -91403.65    100296.61    46.307886    46.307886    46.770965    16800 
     392            0    10719.722    103.48514    11007.395    11007.389    10144.381 -8.7118176e-06 -0.00011789816 3.5034664e-05            0    -91403.65    -91403.65    100296.61    46.307886    46.307886    46.770965    16800 
     393            0    10719.717    103.75021    11007.387    11007.389    10144.375 -9.2554804e-06 -0.00010312607 0.00011032511            0    -91403.65    -91403.65    100296.61    46.307886    46.307886    46.770965    16800 
     394            0    10719.716    104.01705    11007.387    11007.388    10144.374 -8.9937722e-06 -1.4306668e-05 5.6076813e-05            0    -91403.65    -91403.65    100296.61    46.307886    46.307886    46.770965    16800 
     395            0    10719.719    104.28197    11007.392     11007.39    10144.377 -8.0640766e-06 -5.2990329e-05 1.709238e-05            0    -91403.65    -91403.65    100296.61    46.307886    46.307886    46.770965    16800 
     396            0    10719.719    104.54622    11007.389    11007.392    10144.376 -7.2120185e-06 -3.9808026e-05 7.0337808e-05            0    -91403.65    -91403.65    100296.61    46.307886    46.307886    46.770965    16800 
     397            0    10719.717    104.81083    11007.387     11007.39    10144.374 -5.65652e-06 4.6958013e-05 -4.8223004e-05            0    -91403.65    -91403.65    100296.61    46.307886    46.307886    46.770965    16800 
     398            0    10719.717    105.07511    11007.389    11007.387    10144.374 -2.6398371e-06 4.6153473e-05 -7.5855825e-05            0    -91403.65    -91403.65    100296.61    46.307886    46.307886    46.770965    16800 
     399            0    10719.719    105.33946     11007.39     11007.39    10144.377 -1.3129857e-06  5.33629e-05 5.7277511e-06            0    -91403.65    -91403.65    100296.61    46.307886    46.307886    46.770965    16800 
     400            0    10719.719    105.60388    11007.389    11007.391    10144.377 4.2634283e-07 0.00010082591 -0.00012462907            0    -91403.65    -91403.65    100296.61    46.307886    46.307886    46.770965    16800 
     401            0    10719.716    105.86816    11007.388    11007.388    10144.374 2.9949425e-06 7.9204867e-05 -0.00011988287            0    -91403.65    -91403.65    100296.61    46.307886    46.307886    46.770965    16800 
     402            0    10719.719     106.1323    11007.389    11007.391    10144.377 4.0432154e-06 7.536812e-05 1.1497021e-05            0    -91403.65    -91403.65    100296.61    46.307886    46.307886    46.770965    16800 
     403            0    10719.721    106.39669    11007.391    11007.394     10144.38 5.5763777e-06 7.7715466e-05 -0.00010957519            0    -91403.65    -91403.65    100296.61    46.307886    46.307886    46.770965    16800 
     404            0    10719.717    106.66097    11007.389    11007.388    10144.374 6.7869135e-06 3.4472133e-05 -9.3121865e-05            0    -91403.65    -91403.65    100296.61    46.307886    46.307886    46.770965    16800 
     405            0    10719.718    106.92535    11007.389    11007.389    10144.375 6.9548695e-06 3.8551441e-05 5.1529697e-05            0    -91403.65    -91403.65    100296.61    46.307886    46.307886    46.770965    16800 
     406            0    10719.721    107.18963    11007.391    11007.392    10144.379 6.7146578e-06 1.7854244e-05 -2.973399e-05            0    -91403.65    -91403.65    100296.61    46.307886    46.307886    46.770965    16800 
     407            0    10719.718    107.45394    11007.389    11007.388    10144.376 6.158819e-06 -2.9056392e-05 -3.4771935e-05            0    -91403.65    -91403.65    100296.61    46.307886    46.307886    46.770965    16800 
     408            0    10719.716    107.71819    11007.388    11007.386    10144.374 5.5425789e-06 -7.296373e-06 0.00010166776            0    -91403.65    -91403.65    100296.61    46.307886    46.307886    46.770965    16800 
     409            0    10719.719    107.98236    11007.389     11007.39    10144.376 3.8729672e-06 -2.1070383e-05 4.2545384e-05            0    -91403.65    -91403.65    100296.61    46.307886    46.307886    46.770965    16800 
     410            0    10719.719    108.24689     11007.39     11007.39    10144.376 2.9065843e-06 -5.4867978e-05 2.1410262e-05            0    -91403.65    -91403.65    100296.61    46.307886    46.307886    46.770965    16800 
     411            0    10719.718    108.58361    11007.389    11007.389    10144.375 1.9334968e-06 -2.248629e-05 0.00010446302            0    -91403.65    -91403.65    100296.61    46.307886    46.307886    46.770965    16800 
     412            0    10719.717    108.84963    11007.388    11007.388    10144.374 -6.4328114e-07 -1.9505917e-05 5.1988557e-05            0    -91403.65    -91403.65    100296.61    46.307886    46.307886    46.770965    16800 
     413            0    10719.718    109.11401     11007.39    11007.389    10144.376 -1.647934e-06 -5.4522812e-05 3.8693364e-05            0    -91403.65    -91403.65    100296.61    46.307886    46.307886    46.770965    16800 
     414            0    10719.719    109.50573    11007.391    11007.389    10144.377 -2.4820025e-06 -2.1020864e-05 7.5323002e-05            0    -91403.65    -91403.65    100296.61    46.307886    46.307886    46.770965    16800 
Loop time of 109.506 on 4 procs for 414 steps with 16800 atoms

79.4% CPU use with 4 MPI tasks x no OpenMP threads

Minimization stats:
  Stopping criterion = energy tolerance
  Energy initial, next-to-last, final = 
     -91387.6900676827  -91403.6500557867  -91403.6500557867
  Force two-norm initial, final = 15.329790 3.0065632e-05
  Force max component initial, final = 3.1238098 1.1057838e-06
  Final line search alpha, max atom move = 1.0000000 1.1057838e-06
  Iterations, force evaluations = 414 824

MPI task timing breakdown:
Section |  min time  |  avg time  |  max time  |%varavg| %total
---------------------------------------------------------------
Pair    | 104.79     | 104.85     | 104.94     |   0.6 | 95.75
Neigh   | 0.049197   | 0.049631   | 0.050454   |   0.2 |  0.05
Comm    | 0.2009     | 0.28543    | 0.34787    |  12.0 |  0.26
Output  | 4.2116     | 4.2129     | 4.2167     |   0.1 |  3.85
Modify  | 0          | 0          | 0          |   0.0 |  0.00
Other   |            | 0.1058     |            |       |  0.10

Nlocal:        4200.00 ave        4200 max        4200 min
Histogram: 4 0 0 0 0 0 0 0 0 0
Nghost:        11450.0 ave       11462 max       11438 min
Histogram: 1 0 1 0 0 0 0 1 0 1
Neighs:         0.00000 ave           0 max           0 min
Histogram: 4 0 0 0 0 0 0 0 0 0
FullNghs:  1.49005e+06 ave 1.49024e+06 max 1.48989e+06 min
Histogram: 1 0 0 1 1 0 0 0 0 1

Total # of neighbors = 5960184
Ave neighs/atom = 354.77286
Neighbor list builds = 1
Dangerous builds = 0

Total wall time: 0:01:55
