/m100_work/ICT22_CMSP_0/zli/ice/disp/direct_interface_lammps/temp/data_lammps00000183wu5hp8 (written by ASE) 

16800 	 atoms 
2  atom types
0.0      46.30788626653353  xlo xhi
0.0      46.30788626653353  ylo yhi
0.0      46.770965129198866  zlo zhi


Atoms 

     1   1      2.3110000999999993      3.4665001500000008     0.95252709337290087
     2   1      2.3110000999999993      3.4665001500000008      7.6595271430086012
     3   1      2.3110000999999993      3.4665001500000008        14.3665271926443
     4   1      2.3110000999999993      3.4665001500000008      21.073527242280001
     5   1      2.3110000999999993      3.4665001500000008      27.780527291915703
     6   1      2.3110000999999993      3.4665001500000008      34.487527341551406
     7   1      2.3110000999999993      3.4665001500000008      41.194525043737201
     8   1      2.3110000999999993      8.0885003500000003     0.95252709337290087
     9   1      2.3110000999999993      8.0885003500000003      7.6595271430086012
    10   1      2.3110000999999993      8.0885003500000003        14.3665271926443
    11   1      2.3110000999999993      8.0885003500000003      21.073527242280001
    12   1      2.3110000999999993      8.0885003500000003      27.780527291915703
    13   1      2.3110000999999993      8.0885003500000003      34.487527341551406
    14   1      2.3110000999999993      8.0885003500000003      41.194525043737201
    15   1      2.3110000999999993      12.710500550000001     0.95252709337290087
    16   1      2.3110000999999993      12.710500550000001      7.6595271430086012
    17   1      2.3110000999999993      12.710500550000001        14.3665271926443
    18   1      2.3110000999999993      12.710500550000001      21.073527242280001
    19   1      2.3110000999999993      12.710500550000001      27.780527291915703
    20   1      2.3110000999999993      12.710500550000001      34.487527341551406
    21   1      2.3110000999999993      12.710500550000001      41.194525043737201
    22   1      2.3110000999999993      17.332500750000001     0.95252709337290087
    23   1      2.3110000999999993      17.332500750000001      7.6595271430086012
    24   1      2.3110000999999993      17.332500750000001        14.3665271926443
    25   1      2.3110000999999993      17.332500750000001      21.073527242280001
    26   1      2.3110000999999993      17.332500750000001      27.780527291915703
    27   1      2.3110000999999993      17.332500750000001      34.487527341551406
    28   1      2.3110000999999993      17.332500750000001      41.194525043737201
    29   1      2.3110000999999993             21.95450095     0.95252709337290087
    30   1      2.3110000999999993             21.95450095      7.6595271430086012
    31   1      2.3110000999999993             21.95450095        14.3665271926443
    32   1      2.3110000999999993             21.95450095      21.073527242280001
    33   1      2.3110000999999993             21.95450095      27.780527291915703
    34   1      2.3110000999999993             21.95450095      34.487527341551406
    35   1      2.3110000999999993             21.95450095      41.194525043737201
    36   1      2.3110000999999993      26.576501149999999     0.95252709337290087
    37   1      2.3110000999999993      26.576501149999999      7.6595271430086012
    38   1      2.3110000999999993      26.576501149999999        14.3665271926443
    39   1      2.3110000999999993      26.576501149999999      21.073527242280001
    40   1      2.3110000999999993      26.576501149999999      27.780527291915703
    41   1      2.3110000999999993      26.576501149999999      34.487527341551406
    42   1      2.3110000999999993      26.576501149999999      41.194525043737201
    43   1      2.3110000999999993      31.198501350000004     0.95252709337290087
    44   1      2.3110000999999993      31.198501350000004      7.6595271430086012
    45   1      2.3110000999999993      31.198501350000004        14.3665271926443
    46   1      2.3110000999999993      31.198501350000004      21.073527242280001
    47   1      2.3110000999999993      31.198501350000004      27.780527291915703
    48   1      2.3110000999999993      31.198501350000004      34.487527341551406
    49   1      2.3110000999999993      31.198501350000004      41.194525043737201
    50   1      2.3110000999999993      35.820501550000003     0.95252709337290087
    51   1      2.3110000999999993      35.820501550000003      7.6595271430086012
    52   1      2.3110000999999993      35.820501550000003        14.3665271926443
    53   1      2.3110000999999993      35.820501550000003      21.073527242280001
    54   1      2.3110000999999993      35.820501550000003      27.780527291915703
    55   1      2.3110000999999993      35.820501550000003      34.487527341551406
    56   1      2.3110000999999993      35.820501550000003      41.194525043737201
    57   1      2.3110000999999993      40.442501749999998     0.95252709337290087
    58   1      2.3110000999999993      40.442501749999998      7.6595271430086012
    59   1      2.3110000999999993      40.442501749999998        14.3665271926443
    60   1      2.3110000999999993      40.442501749999998      21.073527242280001
    61   1      2.3110000999999993      40.442501749999998      27.780527291915703
    62   1      2.3110000999999993      40.442501749999998      34.487527341551406
    63   1      2.3110000999999993      40.442501749999998      41.194525043737201
    64   1      2.3110000999999993             45.06450195     0.95252709337290087
    65   1      2.3110000999999993             45.06450195      7.6595271430086012
    66   1      2.3110000999999993             45.06450195        14.3665271926443
    67   1      2.3110000999999993             45.06450195      21.073527242280001
    68   1      2.3110000999999993             45.06450195      27.780527291915703
    69   1      2.3110000999999993             45.06450195      34.487527341551406
    70   1      2.3110000999999993             45.06450195      41.194525043737201
    71   1      6.9330003000000016      3.4665001500000008     0.95252709337290087
    72   1      6.9330003000000016      3.4665001500000008      7.6595271430086012
    73   1      6.9330003000000016      3.4665001500000008        14.3665271926443
    74   1      6.9330003000000016      3.4665001500000008      21.073527242280001
    75   1      6.9330003000000016      3.4665001500000008      27.780527291915703
    76   1      6.9330003000000016      3.4665001500000008      34.487527341551406
    77   1      6.9330003000000016      3.4665001500000008      41.194525043737201
    78   1      6.9330003000000016      8.0885003500000003     0.95252709337290087
    79   1      6.9330003000000016      8.0885003500000003      7.6595271430086012
    80   1      6.9330003000000016      8.0885003500000003        14.3665271926443
    81   1      6.9330003000000016      8.0885003500000003      21.073527242280001
    82   1      6.9330003000000016      8.0885003500000003      27.780527291915703
    83   1      6.9330003000000016      8.0885003500000003      34.487527341551406
    84   1      6.9330003000000016      8.0885003500000003      41.194525043737201
    85   1      6.9330003000000016      12.710500550000001     0.95252709337290087
    86   1      6.9330003000000016      12.710500550000001      7.6595271430086012
    87   1      6.9330003000000016      12.710500550000001        14.3665271926443
    88   1      6.9330003000000016      12.710500550000001      21.073527242280001
    89   1      6.9330003000000016      12.710500550000001      27.780527291915703
    90   1      6.9330003000000016      12.710500550000001      34.487527341551406
    91   1      6.9330003000000016      12.710500550000001      41.194525043737201
    92   1      6.9330003000000016      17.332500750000001     0.95252709337290087
    93   1      6.9330003000000016      17.332500750000001      7.6595271430086012
    94   1      6.9330003000000016      17.332500750000001        14.3665271926443
    95   1      6.9330003000000016      17.332500750000001      21.073527242280001
    96   1      6.9330003000000016      17.332500750000001      27.780527291915703
    97   1      6.9330003000000016      17.332500750000001      34.487527341551406
    98   1      6.9330003000000016      17.332500750000001      41.194525043737201
    99   1      6.9330003000000016             21.95450095     0.95252709337290087
   100   1      6.9330003000000016             21.95450095      7.6595271430086012
   101   1      6.9330003000000016             21.95450095        14.3665271926443
   102   1      6.9330003000000016             21.95450095      21.073527242280001
   103   1      6.9330003000000016             21.95450095      27.780527291915703
   104   1      6.9330003000000016             21.95450095      34.487527341551406
   105   1      6.9330003000000016             21.95450095      41.194525043737201
   106   1      6.9330003000000016      26.576501149999999     0.95252709337290087
   107   1      6.9330003000000016      26.576501149999999      7.6595271430086012
   108   1      6.9330003000000016      26.576501149999999        14.3665271926443
   109   1      6.9330003000000016      26.576501149999999      21.073527242280001
   110   1      6.9330003000000016      26.576501149999999      27.780527291915703
   111   1      6.9330003000000016      26.576501149999999      34.487527341551406
   112   1      6.9330003000000016      26.576501149999999      41.194525043737201
   113   1      6.9330003000000016      31.198501350000004     0.95252709337290087
   114   1      6.9330003000000016      31.198501350000004      7.6595271430086012
   115   1      6.9330003000000016      31.198501350000004        14.3665271926443
   116   1      6.9330003000000016      31.198501350000004      21.073527242280001
   117   1      6.9330003000000016      31.198501350000004      27.780527291915703
   118   1      6.9330003000000016      31.198501350000004      34.487527341551406
   119   1      6.9330003000000016      31.198501350000004      41.194525043737201
   120   1      6.9330003000000016      35.820501550000003     0.95252709337290087
   121   1      6.9330003000000016      35.820501550000003      7.6595271430086012
   122   1      6.9330003000000016      35.820501550000003        14.3665271926443
   123   1      6.9330003000000016      35.820501550000003      21.073527242280001
   124   1      6.9330003000000016      35.820501550000003      27.780527291915703
   125   1      6.9330003000000016      35.820501550000003      34.487527341551406
   126   1      6.9330003000000016      35.820501550000003      41.194525043737201
   127   1      6.9330003000000016      40.442501749999998     0.95252709337290087
   128   1      6.9330003000000016      40.442501749999998      7.6595271430086012
   129   1      6.9330003000000016      40.442501749999998        14.3665271926443
   130   1      6.9330003000000016      40.442501749999998      21.073527242280001
   131   1      6.9330003000000016      40.442501749999998      27.780527291915703
   132   1      6.9330003000000016      40.442501749999998      34.487527341551406
   133   1      6.9330003000000016      40.442501749999998      41.194525043737201
   134   1      6.9330003000000016             45.06450195     0.95252709337290087
   135   1      6.9330003000000016             45.06450195      7.6595271430086012
   136   1      6.9330003000000016             45.06450195        14.3665271926443
   137   1      6.9330003000000016             45.06450195      21.073527242280001
   138   1      6.9330003000000016             45.06450195      27.780527291915703
   139   1      6.9330003000000016             45.06450195      34.487527341551406
   140   1      6.9330003000000016             45.06450195      41.194525043737201
   141   1              11.5550005      3.4665001500000008     0.95252709337290087
   142   1              11.5550005      3.4665001500000008      7.6595271430086012
   143   1              11.5550005      3.4665001500000008        14.3665271926443
   144   1              11.5550005      3.4665001500000008      21.073527242280001
   145   1              11.5550005      3.4665001500000008      27.780527291915703
   146   1              11.5550005      3.4665001500000008      34.487527341551406
   147   1              11.5550005      3.4665001500000008      41.194525043737201
   148   1              11.5550005      8.0885003500000003     0.95252709337290087
   149   1              11.5550005      8.0885003500000003      7.6595271430086012
   150   1              11.5550005      8.0885003500000003        14.3665271926443
   151   1              11.5550005      8.0885003500000003      21.073527242280001
   152   1              11.5550005      8.0885003500000003      27.780527291915703
   153   1              11.5550005      8.0885003500000003      34.487527341551406
   154   1              11.5550005      8.0885003500000003      41.194525043737201
   155   1              11.5550005      12.710500550000001     0.95252709337290087
   156   1              11.5550005      12.710500550000001      7.6595271430086012
   157   1              11.5550005      12.710500550000001        14.3665271926443
   158   1              11.5550005      12.710500550000001      21.073527242280001
   159   1              11.5550005      12.710500550000001      27.780527291915703
   160   1              11.5550005      12.710500550000001      34.487527341551406
   161   1              11.5550005      12.710500550000001      41.194525043737201
   162   1              11.5550005      17.332500750000001     0.95252709337290087
   163   1              11.5550005      17.332500750000001      7.6595271430086012
   164   1              11.5550005      17.332500750000001        14.3665271926443
   165   1              11.5550005      17.332500750000001      21.073527242280001
   166   1              11.5550005      17.332500750000001      27.780527291915703
   167   1              11.5550005      17.332500750000001      34.487527341551406
   168   1              11.5550005      17.332500750000001      41.194525043737201
   169   1              11.5550005             21.95450095     0.95252709337290087
   170   1              11.5550005             21.95450095      7.6595271430086012
   171   1              11.5550005             21.95450095        14.3665271926443
   172   1              11.5550005             21.95450095      21.073527242280001
   173   1              11.5550005             21.95450095      27.780527291915703
   174   1              11.5550005             21.95450095      34.487527341551406
   175   1              11.5550005             21.95450095      41.194525043737201
   176   1              11.5550005      26.576501149999999     0.95252709337290087
   177   1              11.5550005      26.576501149999999      7.6595271430086012
   178   1              11.5550005      26.576501149999999        14.3665271926443
   179   1              11.5550005      26.576501149999999      21.073527242280001
   180   1              11.5550005      26.576501149999999      27.780527291915703
   181   1              11.5550005      26.576501149999999      34.487527341551406
   182   1              11.5550005      26.576501149999999      41.194525043737201
   183   1              11.5550005      31.198501350000004     0.95252709337290087
   184   1              11.5550005      31.198501350000004      7.6595271430086012
   185   1              11.5550005      31.198501350000004        14.3665271926443
   186   1              11.5550005      31.198501350000004      21.073527242280001
   187   1              11.5550005      31.198501350000004      27.780527291915703
   188   1              11.5550005      31.198501350000004      34.487527341551406
   189   1              11.5550005      31.198501350000004      41.194525043737201
   190   1              11.5550005      35.820501550000003     0.95252709337290087
   191   1              11.5550005      35.820501550000003      7.6595271430086012
   192   1              11.5550005      35.820501550000003        14.3665271926443
   193   1              11.5550005      35.820501550000003      21.073527242280001
   194   1              11.5550005      35.820501550000003      27.780527291915703
   195   1              11.5550005      35.820501550000003      34.487527341551406
   196   1              11.5550005      35.820501550000003      41.194525043737201
   197   1              11.5550005      40.442501749999998     0.95252709337290087
   198   1              11.5550005      40.442501749999998      7.6595271430086012
   199   1              11.5550005      40.442501749999998        14.3665271926443
   200   1              11.5550005      40.442501749999998      21.073527242280001
   201   1              11.5550005      40.442501749999998      27.780527291915703
   202   1              11.5550005      40.442501749999998      34.487527341551406
   203   1              11.5550005      40.442501749999998      41.194525043737201
   204   1              11.5550005             45.06450195     0.95252709337290087
   205   1              11.5550005             45.06450195      7.6595271430086012
   206   1              11.5550005             45.06450195        14.3665271926443
   207   1              11.5550005             45.06450195      21.073527242280001
   208   1              11.5550005             45.06450195      27.780527291915703
   209   1              11.5550005             45.06450195      34.487527341551406
   210   1              11.5550005             45.06450195      41.194525043737201
   211   1      16.177000700000001      3.4665001500000008     0.95252709337290087
   212   1      16.177000700000001      3.4665001500000008      7.6595271430086012
   213   1      16.177000700000001      3.4665001500000008        14.3665271926443
   214   1      16.177000700000001      3.4665001500000008      21.073527242280001
   215   1      16.177000700000001      3.4665001500000008      27.780527291915703
   216   1      16.177000700000001      3.4665001500000008      34.487527341551406
   217   1      16.177000700000001      3.4665001500000008      41.194525043737201
   218   1      16.177000700000001      8.0885003500000003     0.95252709337290087
   219   1      16.177000700000001      8.0885003500000003      7.6595271430086012
   220   1      16.177000700000001      8.0885003500000003        14.3665271926443
   221   1      16.177000700000001      8.0885003500000003      21.073527242280001
   222   1      16.177000700000001      8.0885003500000003      27.780527291915703
   223   1      16.177000700000001      8.0885003500000003      34.487527341551406
   224   1      16.177000700000001      8.0885003500000003      41.194525043737201
   225   1      16.177000700000001      12.710500550000001     0.95252709337290087
   226   1      16.177000700000001      12.710500550000001      7.6595271430086012
   227   1      16.177000700000001      12.710500550000001        14.3665271926443
   228   1      16.177000700000001      12.710500550000001      21.073527242280001
   229   1      16.177000700000001      12.710500550000001      27.780527291915703
   230   1      16.177000700000001      12.710500550000001      34.487527341551406
   231   1      16.177000700000001      12.710500550000001      41.194525043737201
   232   1      16.177000700000001      17.332500750000001     0.95252709337290087
   233   1      16.177000700000001      17.332500750000001      7.6595271430086012
   234   1      16.177000700000001      17.332500750000001        14.3665271926443
   235   1      16.177000700000001      17.332500750000001      21.073527242280001
   236   1      16.177000700000001      17.332500750000001      27.780527291915703
   237   1      16.177000700000001      17.332500750000001      34.487527341551406
   238   1      16.177000700000001      17.332500750000001      41.194525043737201
   239   1      16.177000700000001             21.95450095     0.95252709337290087
   240   1      16.177000700000001             21.95450095      7.6595271430086012
   241   1      16.177000700000001             21.95450095        14.3665271926443
   242   1      16.177000700000001             21.95450095      21.073527242280001
   243   1      16.177000700000001             21.95450095      27.780527291915703
   244   1      16.177000700000001             21.95450095      34.487527341551406
   245   1      16.177000700000001             21.95450095      41.194525043737201
   246   1      16.177000700000001      26.576501149999999     0.95252709337290087
   247   1      16.177000700000001      26.576501149999999      7.6595271430086012
   248   1      16.177000700000001      26.576501149999999        14.3665271926443
   249   1      16.177000700000001      26.576501149999999      21.073527242280001
   250   1      16.177000700000001      26.576501149999999      27.780527291915703
   251   1      16.177000700000001      26.576501149999999      34.487527341551406
   252   1      16.177000700000001      26.576501149999999      41.194525043737201
   253   1      16.177000700000001      31.198501350000004     0.95252709337290087
   254   1      16.177000700000001      31.198501350000004      7.6595271430086012
   255   1      16.177000700000001      31.198501350000004        14.3665271926443
   256   1      16.177000700000001      31.198501350000004      21.073527242280001
   257   1      16.177000700000001      31.198501350000004      27.780527291915703
   258   1      16.177000700000001      31.198501350000004      34.487527341551406
   259   1      16.177000700000001      31.198501350000004      41.194525043737201
   260   1      16.177000700000001      35.820501550000003     0.95252709337290087
   261   1      16.177000700000001      35.820501550000003      7.6595271430086012
   262   1      16.177000700000001      35.820501550000003        14.3665271926443
   263   1      16.177000700000001      35.820501550000003      21.073527242280001
   264   1      16.177000700000001      35.820501550000003      27.780527291915703
   265   1      16.177000700000001      35.820501550000003      34.487527341551406
   266   1      16.177000700000001      35.820501550000003      41.194525043737201
   267   1      16.177000700000001      40.442501749999998     0.95252709337290087
   268   1      16.177000700000001      40.442501749999998      7.6595271430086012
   269   1      16.177000700000001      40.442501749999998        14.3665271926443
   270   1      16.177000700000001      40.442501749999998      21.073527242280001
   271   1      16.177000700000001      40.442501749999998      27.780527291915703
   272   1      16.177000700000001      40.442501749999998      34.487527341551406
   273   1      16.177000700000001      40.442501749999998      41.194525043737201
   274   1      16.177000700000001             45.06450195     0.95252709337290087
   275   1      16.177000700000001             45.06450195      7.6595271430086012
   276   1      16.177000700000001             45.06450195        14.3665271926443
   277   1      16.177000700000001             45.06450195      21.073527242280001
   278   1      16.177000700000001             45.06450195      27.780527291915703
   279   1      16.177000700000001             45.06450195      34.487527341551406
   280   1      16.177000700000001             45.06450195      41.194525043737201
   281   1      20.799000899999999      3.4665001500000008     0.95252709337290087
   282   1      20.799000899999999      3.4665001500000008      7.6595271430086012
   283   1      20.799000899999999      3.4665001500000008        14.3665271926443
   284   1      20.799000899999999      3.4665001500000008      21.073527242280001
   285   1      20.799000899999999      3.4665001500000008      27.780527291915703
   286   1      20.799000899999999      3.4665001500000008      34.487527341551406
   287   1      20.799000899999999      3.4665001500000008      41.194525043737201
   288   1      20.799000899999999      8.0885003500000003     0.95252709337290087
   289   1      20.799000899999999      8.0885003500000003      7.6595271430086012
   290   1      20.799000899999999      8.0885003500000003        14.3665271926443
   291   1      20.799000899999999      8.0885003500000003      21.073527242280001
   292   1      20.799000899999999      8.0885003500000003      27.780527291915703
   293   1      20.799000899999999      8.0885003500000003      34.487527341551406
   294   1      20.799000899999999      8.0885003500000003      41.194525043737201
   295   1      20.799000899999999      12.710500550000001     0.95252709337290087
   296   1      20.799000899999999      12.710500550000001      7.6595271430086012
   297   1      20.799000899999999      12.710500550000001        14.3665271926443
   298   1      20.799000899999999      12.710500550000001      21.073527242280001
   299   1      20.799000899999999      12.710500550000001      27.780527291915703
   300   1      20.799000899999999      12.710500550000001      34.487527341551406
   301   1      20.799000899999999      12.710500550000001      41.194525043737201
   302   1      20.799000899999999      17.332500750000001     0.95252709337290087
   303   1      20.799000899999999      17.332500750000001      7.6595271430086012
   304   1      20.799000899999999      17.332500750000001        14.3665271926443
   305   1      20.799000899999999      17.332500750000001      21.073527242280001
   306   1      20.799000899999999      17.332500750000001      27.780527291915703
   307   1      20.799000899999999      17.332500750000001      34.487527341551406
   308   1      20.799000899999999      17.332500750000001      41.194525043737201
   309   1      20.799000899999999             21.95450095     0.95252709337290087
   310   1      20.799000899999999             21.95450095      7.6595271430086012
   311   1      20.799000899999999             21.95450095        14.3665271926443
   312   1      20.799000899999999             21.95450095      21.073527242280001
   313   1      20.799000899999999             21.95450095      27.780527291915703
   314   1      20.799000899999999             21.95450095      34.487527341551406
   315   1      20.799000899999999             21.95450095      41.194525043737201
   316   1      20.799000899999999      26.576501149999999     0.95252709337290087
   317   1      20.799000899999999      26.576501149999999      7.6595271430086012
   318   1      20.799000899999999      26.576501149999999        14.3665271926443
   319   1      20.799000899999999      26.576501149999999      21.073527242280001
   320   1      20.799000899999999      26.576501149999999      27.780527291915703
   321   1      20.799000899999999      26.576501149999999      34.487527341551406
   322   1      20.799000899999999      26.576501149999999      41.194525043737201
   323   1      20.799000899999999      31.198501350000004     0.95252709337290087
   324   1      20.799000899999999      31.198501350000004      7.6595271430086012
   325   1      20.799000899999999      31.198501350000004        14.3665271926443
   326   1      20.799000899999999      31.198501350000004      21.073527242280001
   327   1      20.799000899999999      31.198501350000004      27.780527291915703
   328   1      20.799000899999999      31.198501350000004      34.487527341551406
   329   1      20.799000899999999      31.198501350000004      41.194525043737201
   330   1      20.799000899999999      35.820501550000003     0.95252709337290087
   331   1      20.799000899999999      35.820501550000003      7.6595271430086012
   332   1      20.799000899999999      35.820501550000003        14.3665271926443
   333   1      20.799000899999999      35.820501550000003      21.073527242280001
   334   1      20.799000899999999      35.820501550000003      27.780527291915703
   335   1      20.799000899999999      35.820501550000003      34.487527341551406
   336   1      20.799000899999999      35.820501550000003      41.194525043737201
   337   1      20.799000899999999      40.442501749999998     0.95252709337290087
   338   1      20.799000899999999      40.442501749999998      7.6595271430086012
   339   1      20.799000899999999      40.442501749999998        14.3665271926443
   340   1      20.799000899999999      40.442501749999998      21.073527242280001
   341   1      20.799000899999999      40.442501749999998      27.780527291915703
   342   1      20.799000899999999      40.442501749999998      34.487527341551406
   343   1      20.799000899999999      40.442501749999998      41.194525043737201
   344   1      20.799000899999999             45.06450195     0.95252709337290087
   345   1      20.799000899999999             45.06450195      7.6595271430086012
   346   1      20.799000899999999             45.06450195        14.3665271926443
   347   1      20.799000899999999             45.06450195      21.073527242280001
   348   1      20.799000899999999             45.06450195      27.780527291915703
   349   1      20.799000899999999             45.06450195      34.487527341551406
   350   1      20.799000899999999             45.06450195      41.194525043737201
   351   1      25.421001100000002      3.4665001500000008     0.95252709337290087
   352   1      25.421001100000002      3.4665001500000008      7.6595271430086012
   353   1      25.421001100000002      3.4665001500000008        14.3665271926443
   354   1      25.421001100000002      3.4665001500000008      21.073527242280001
   355   1      25.421001100000002      3.4665001500000008      27.780527291915703
   356   1      25.421001100000002      3.4665001500000008      34.487527341551406
   357   1      25.421001100000002      3.4665001500000008      41.194525043737201
   358   1      25.421001100000002      8.0885003500000003     0.95252709337290087